 Entering Gaussian System, Link 0=g09
 Input=go.com
 Output=go.log
 Initial command:
 /ddn/data/hamilton6/apps/gaussian/g09D.01/g09/l1.exe "/ddn/home/dlqg54/gaussiantemp/Gau-145264.inp" -scrdir="/ddn/home/dlqg54/gaussiantemp/"
 Entering Link 1 = /ddn/data/hamilton6/apps/gaussian/g09D.01/g09/l1.exe PID=    145265.
  
 Copyright (c) 1988,1990,1992,1993,1995,1998,2003,2009,2013,
            Gaussian, Inc.  All Rights Reserved.
  
 This is part of the Gaussian(R) 09 program.  It is based on
 the Gaussian(R) 03 system (copyright 2003, Gaussian, Inc.),
 the Gaussian(R) 98 system (copyright 1998, Gaussian, Inc.),
 the Gaussian(R) 94 system (copyright 1995, Gaussian, Inc.),
 the Gaussian 92(TM) system (copyright 1992, Gaussian, Inc.),
 the Gaussian 90(TM) system (copyright 1990, Gaussian, Inc.),
 the Gaussian 88(TM) system (copyright 1988, Gaussian, Inc.),
 the Gaussian 86(TM) system (copyright 1986, Carnegie Mellon
 University), and the Gaussian 82(TM) system (copyright 1983,
 Carnegie Mellon University). Gaussian is a federally registered
 trademark of Gaussian, Inc.
  
 This software contains proprietary and confidential information,
 including trade secrets, belonging to Gaussian, Inc.
  
 This software is provided under written license and may be
 used, copied, transmitted, or stored only in accord with that
 written license.
  
 The following legend is applicable only to US Government
 contracts under FAR:
  
                    RESTRICTED RIGHTS LEGEND
  
 Use, reproduction and disclosure by the US Government is
 subject to restrictions as set forth in subparagraphs (a)
 and (c) of the Commercial Computer Software - Restricted
 Rights clause in FAR 52.227-19.
  
 Gaussian, Inc.
 340 Quinnipiac St., Bldg. 40, Wallingford CT 06492
  
  
 ---------------------------------------------------------------
 Warning -- This program may not be used in any manner that
 competes with the business of Gaussian, Inc. or will provide
 assistance to any competitor of Gaussian, Inc.  The licensee
 of this program is prohibited from giving any competitor of
 Gaussian, Inc. access to this program.  By using this program,
 the user acknowledges that Gaussian, Inc. is engaged in the
 business of creating and licensing software in the field of
 computational chemistry and represents and warrants to the
 licensee that it is not a competitor of Gaussian, Inc. and that
 it will not use this program in any manner prohibited above.
 ---------------------------------------------------------------
  

 Cite this work as:
 Gaussian 09, Revision D.01,
 M. J. Frisch, G. W. Trucks, H. B. Schlegel, G. E. Scuseria, 
 M. A. Robb, J. R. Cheeseman, G. Scalmani, V. Barone, B. Mennucci, 
 G. A. Petersson, H. Nakatsuji, M. Caricato, X. Li, H. P. Hratchian, 
 A. F. Izmaylov, J. Bloino, G. Zheng, J. L. Sonnenberg, M. Hada, 
 M. Ehara, K. Toyota, R. Fukuda, J. Hasegawa, M. Ishida, T. Nakajima, 
 Y. Honda, O. Kitao, H. Nakai, T. Vreven, J. A. Montgomery, Jr., 
 J. E. Peralta, F. Ogliaro, M. Bearpark, J. J. Heyd, E. Brothers, 
 K. N. Kudin, V. N. Staroverov, T. Keith, R. Kobayashi, J. Normand, 
 K. Raghavachari, A. Rendell, J. C. Burant, S. S. Iyengar, J. Tomasi, 
 M. Cossi, N. Rega, J. M. Millam, M. Klene, J. E. Knox, J. B. Cross, 
 V. Bakken, C. Adamo, J. Jaramillo, R. Gomperts, R. E. Stratmann, 
 O. Yazyev, A. J. Austin, R. Cammi, C. Pomelli, J. W. Ochterski, 
 R. L. Martin, K. Morokuma, V. G. Zakrzewski, G. A. Voth, 
 P. Salvador, J. J. Dannenberg, S. Dapprich, A. D. Daniels, 
 O. Farkas, J. B. Foresman, J. V. Ortiz, J. Cioslowski, 
 and D. J. Fox, Gaussian, Inc., Wallingford CT, 2013.
 
 ******************************************
 Gaussian 09:  ES64L-G09RevD.01 24-Apr-2013
                10-Dec-2021 
 ******************************************
 %chk=go.chk
 %nproc=8
 Will use up to    8 processors via shared memory.
 %mem=16gb
 ----------------------------------------------------------------
 #P GFINPUT #b3lyp/gen 6D pseudo=read Opt freq=(noraman, HPModes)
 ----------------------------------------------------------------
 1/14=-1,18=20,19=15,26=3,38=1/1,3;
 2/9=110,12=2,17=6,18=5,40=1/2;
 3/5=7,8=2,11=2,16=1,17=8,24=10,25=1,30=1,71=1,74=-5/1,2,3;
 4//1;
 5/5=2,38=5/2;
 6/7=2,8=2,9=2,10=2,28=1/1;
 7//1,2,3,16;
 1/14=-1,18=20,19=15,26=3/3(2);
 2/9=110/2;
 99//99;
 2/9=110/2;
 3/5=7,6=1,8=2,11=2,16=1,17=8,25=1,30=1,71=1,74=-5,82=7/1,2,3;
 4/5=5,16=3,69=1/1;
 5/5=2,38=5/2;
 7//1,2,3,16;
 1/14=-1,18=20,19=15,26=3/3(-5);
 2/9=110/2;
 6/7=2,8=2,9=2,10=2,19=2,28=1/1;
 99/9=1/99;
 Leave Link    1 at Fri Dec 10 11:30:05 2021, MaxMem=  2147483648 cpu:         0.7
 (Enter /ddn/data/hamilton6/apps/gaussian/g09D.01/g09/l101.exe)


 Symbolic Z-matrix:
 Charge =  0 Multiplicity = 1
 Cr                   -0.94967   0.23901  -0.0381 
 C                    -1.25096   2.10023   0.24113 
 C                    -0.64795  -1.62183  -0.31898 
 O                    -0.46551  -2.74684  -0.4899 
 O                    -1.43312   3.2255    0.41021 
 C                     0.91392   0.49683   0.26777 
 C                    -2.81378  -0.01857  -0.34076 
 O                    -3.94092  -0.17572  -0.5221 
 O                     2.0404    0.65421   0.45321 
 C                    -1.21237  -0.08231   1.82211 
 O                    -1.37316  -0.27651   2.94665 
 C                    -0.68753   0.55918  -1.89876 
 O                    -0.52734   0.75184  -3.02364 
 
 NAtoms=     13 NQM=       13 NQMF=       0 NMMI=      0 NMMIF=      0
                NMic=       0 NMicF=      0.
                    Isotopes and Nuclear Properties:
 (Nuclear quadrupole moments (NQMom) in fm**2, nuclear magnetic moments (NMagM)
  in nuclear magnetons)

  Atom         1           2           3           4           5           6           7           8           9          10
 IAtWgt=          52          12          12          16          16          12          12          16          16          12
 AtmWgt=  51.9405097  12.0000000  12.0000000  15.9949146  15.9949146  12.0000000  12.0000000  15.9949146  15.9949146  12.0000000
 NucSpn=           0           0           0           0           0           0           0           0           0           0
 AtZEff=   0.0000000   0.0000000   0.0000000   0.0000000   0.0000000   0.0000000   0.0000000   0.0000000   0.0000000   0.0000000
 NQMom=    0.0000000   0.0000000   0.0000000   0.0000000   0.0000000   0.0000000   0.0000000   0.0000000   0.0000000   0.0000000
 NMagM=    0.0000000   0.0000000   0.0000000   0.0000000   0.0000000   0.0000000   0.0000000   0.0000000   0.0000000   0.0000000
 AtZNuc=  24.0000000   6.0000000   6.0000000   8.0000000   8.0000000   6.0000000   6.0000000   8.0000000   8.0000000   6.0000000

  Atom        11          12          13
 IAtWgt=          16          12          16
 AtmWgt=  15.9949146  12.0000000  15.9949146
 NucSpn=           0           0           0
 AtZEff=   0.0000000   0.0000000   0.0000000
 NQMom=    0.0000000   0.0000000   0.0000000
 NMagM=    0.0000000   0.0000000   0.0000000
 AtZNuc=   8.0000000   6.0000000   8.0000000
 Leave Link  101 at Fri Dec 10 11:30:06 2021, MaxMem=  2147483648 cpu:         6.1
 (Enter /ddn/data/hamilton6/apps/gaussian/g09D.01/g09/l103.exe)

 GradGradGradGradGradGradGradGradGradGradGradGradGradGradGradGradGradGrad
 Berny optimization.
 Initialization pass.
                           ----------------------------
                           !    Initial Parameters    !
                           ! (Angstroms and Degrees)  !
 --------------------------                            --------------------------
 ! Name  Definition              Value          Derivative Info.                !
 --------------------------------------------------------------------------------
 ! R1    R(1,2)                  1.906          estimate D2E/DX2                !
 ! R2    R(1,3)                  1.906          estimate D2E/DX2                !
 ! R3    R(1,6)                  1.906          estimate D2E/DX2                !
 ! R4    R(1,7)                  1.906          estimate D2E/DX2                !
 ! R5    R(1,10)                 1.9059         estimate D2E/DX2                !
 ! R6    R(1,12)                 1.9061         estimate D2E/DX2                !
 ! R7    R(2,5)                  1.1524         estimate D2E/DX2                !
 ! R8    R(3,4)                  1.1524         estimate D2E/DX2                !
 ! R9    R(6,9)                  1.1524         estimate D2E/DX2                !
 ! R10   R(7,8)                  1.1524         estimate D2E/DX2                !
 ! R11   R(10,11)                1.1525         estimate D2E/DX2                !
 ! R12   R(12,13)                1.1524         estimate D2E/DX2                !
 ! A1    A(2,1,6)               89.9401         estimate D2E/DX2                !
 ! A2    A(2,1,7)               90.0361         estimate D2E/DX2                !
 ! A3    A(2,1,10)              89.9915         estimate D2E/DX2                !
 ! A4    A(2,1,12)              90.0415         estimate D2E/DX2                !
 ! A5    A(3,1,6)               90.0535         estimate D2E/DX2                !
 ! A6    A(3,1,7)               89.9703         estimate D2E/DX2                !
 ! A7    A(3,1,10)              90.0605         estimate D2E/DX2                !
 ! A8    A(3,1,12)              89.9065         estimate D2E/DX2                !
 ! A9    A(6,1,10)              90.0538         estimate D2E/DX2                !
 ! A10   A(6,1,12)              89.9695         estimate D2E/DX2                !
 ! A11   A(7,1,10)              89.851          estimate D2E/DX2                !
 ! A12   A(7,1,12)              90.1256         estimate D2E/DX2                !
 ! A13   L(2,1,3,6,-1)         179.9936         estimate D2E/DX2                !
 ! A14   L(6,1,7,2,-1)         179.9763         estimate D2E/DX2                !
 ! A15   L(10,1,12,2,-1)       180.033          estimate D2E/DX2                !
 ! A16   L(1,2,5,9,-1)         179.9982         estimate D2E/DX2                !
 ! A17   L(1,3,4,13,-1)        179.946          estimate D2E/DX2                !
 ! A18   L(1,6,9,5,-1)         179.9217         estimate D2E/DX2                !
 ! A19   L(1,7,8,11,-1)        179.9073         estimate D2E/DX2                !
 ! A20   L(1,10,11,8,-1)       179.9037         estimate D2E/DX2                !
 ! A21   L(1,12,13,4,-1)       179.9425         estimate D2E/DX2                !
 ! A22   L(2,1,3,6,-2)         180.0519         estimate D2E/DX2                !
 ! A23   L(6,1,7,2,-2)         180.0951         estimate D2E/DX2                !
 ! A24   L(10,1,12,2,-2)       180.0233         estimate D2E/DX2                !
 ! A25   L(1,2,5,9,-2)         180.0146         estimate D2E/DX2                !
 ! A26   L(1,3,4,13,-2)        180.0094         estimate D2E/DX2                !
 ! A27   L(1,6,9,5,-2)         179.9839         estimate D2E/DX2                !
 ! A28   L(1,7,8,11,-2)        180.0657         estimate D2E/DX2                !
 ! A29   L(1,10,11,8,-2)       180.0207         estimate D2E/DX2                !
 ! A30   L(1,12,13,4,-2)       180.0914         estimate D2E/DX2                !
 ! D1    D(2,1,10,6)           -89.9401         estimate D2E/DX2                !
 ! D2    D(2,1,12,6)            89.9401         estimate D2E/DX2                !
 ! D3    D(2,1,10,7)            90.0362         estimate D2E/DX2                !
 ! D4    D(2,1,12,7)           -90.0362         estimate D2E/DX2                !
 ! D5    D(3,1,10,6)            90.0535         estimate D2E/DX2                !
 ! D6    D(3,1,12,6)           -90.0535         estimate D2E/DX2                !
 ! D7    D(3,1,10,7)           -89.9702         estimate D2E/DX2                !
 ! D8    D(3,1,12,7)            89.9701         estimate D2E/DX2                !
 --------------------------------------------------------------------------------
 Trust Radius=3.00D-01 FncErr=1.00D-07 GrdErr=1.00D-06
 Number of steps in this run=     60 maximum allowed number of steps=    100.
 GradGradGradGradGradGradGradGradGradGradGradGradGradGradGradGradGradGrad

 Leave Link  103 at Fri Dec 10 11:30:06 2021, MaxMem=  2147483648 cpu:         0.1
 (Enter /ddn/data/hamilton6/apps/gaussian/g09D.01/g09/l202.exe)
                          Input orientation:                          
 ---------------------------------------------------------------------
 Center     Atomic      Atomic             Coordinates (Angstroms)
 Number     Number       Type             X           Y           Z
 ---------------------------------------------------------------------
      1         24           0       -0.949670    0.239011   -0.038100
      2          6           0       -1.250959    2.100231    0.241133
      3          6           0       -0.647947   -1.621831   -0.318977
      4          8           0       -0.465515   -2.746837   -0.489896
      5          8           0       -1.433117    3.225497    0.410208
      6          6           0        0.913919    0.496833    0.267774
      7          6           0       -2.813778   -0.018569   -0.340763
      8          8           0       -3.940925   -0.175718   -0.522103
      9          8           0        2.040401    0.654211    0.453212
     10          6           0       -1.212367   -0.082305    1.822111
     11          8           0       -1.373159   -0.276508    2.946646
     12          6           0       -0.687535    0.559179   -1.898763
     13          8           0       -0.527336    0.751835   -3.023640
 ---------------------------------------------------------------------
                    Distance matrix (angstroms):
                    1          2          3          4          5
     1  Cr   0.000000
     2  C    1.906013   0.000000
     3  C    1.905954   3.811966   0.000000
     4  O    3.058401   4.964413   1.152447   0.000000
     5  O    3.058398   1.152385   4.964352   6.116798   0.000000
     6  C    1.906041   2.694121   2.696746   3.605315   3.602009
     7  C    1.906004   2.696353   2.694763   3.602781   3.604739
     8  O    3.058409   3.605328   3.602250   4.323213   4.327420
     9  O    3.058480   3.601250   3.606085   4.328532   4.321885
    10  C    1.905948   2.695263   2.696843   3.605952   3.603298
    11  O    3.058400   3.603279   3.605568   4.328529   4.324483
    12  C    1.906119   2.696561   2.693342   3.600547   3.605064
    13  O    3.058563   3.605627   3.600561   4.320230   4.327904
                    6          7          8          9         10
     6  C    0.000000
     7  C    3.812044   0.000000
     8  O    4.964447   1.152406   0.000000
     9  O    1.152440   4.964482   6.116885   0.000000
    10  C    2.696749   2.691951   3.598484   3.605113   0.000000
    11  O    3.606264   3.598468   4.316920   4.328492   1.152453
    12  C    2.694888   2.698531   3.608298   3.603117   3.812066
    13  O    3.602173   3.608209   4.332509   4.323344   4.964510
                   11         12         13
    11  O    0.000000
    12  C    4.964518   0.000000
    13  O    6.116962   1.152445   0.000000
 Stoichiometry    C6CrO6
 Framework group  C1[X(C6CrO6)]
 Deg. of freedom    33
 Full point group                 C1      NOp   1
 Largest Abelian subgroup         C1      NOp   1
 Largest concise Abelian subgroup C1      NOp   1
                         Standard orientation:                         
 ---------------------------------------------------------------------
 Center     Atomic      Atomic             Coordinates (Angstroms)
 Number     Number       Type             X           Y           Z
 ---------------------------------------------------------------------
      1         24           0       -0.000319   -0.000016   -0.000161
      2          6           0        0.089855   -1.669526   -0.915306
      3          6           0       -0.091882    1.669885    0.914009
      4          8           0       -0.147919    2.679988    1.465992
      5          8           0        0.144528   -2.679010   -1.468430
      6          6           0       -1.318060   -0.717732    1.175184
      7          6           0        1.319714    0.716035   -1.173889
      8          8           0        2.119117    1.149391   -1.881841
      9          8           0       -2.114524   -1.153143    1.885241
     10          6           0        1.374972   -0.576653    1.186727
     11          8           0        2.207910   -0.924903    1.903026
     12          6           0       -1.375248    0.577926   -1.187107
     13          8           0       -2.207667    0.927774   -1.903218
 ---------------------------------------------------------------------
 Rotational constants (GHZ):      0.6546464      0.6542107      0.6528974
 Leave Link  202 at Fri Dec 10 11:30:06 2021, MaxMem=  2147483648 cpu:         0.0
 (Enter /ddn/data/hamilton6/apps/gaussian/g09D.01/g09/l301.exe)
 General basis read from cards:  (6D, 7F)
 Centers:       4      5      8      9     11     13      2      3      6      7
 Centers:      10     12
 DGDZVP
 ****
 Centers:       1
 LANL2DZ
 ****
 ======================================================================================================
                                       Pseudopotential Parameters
 ======================================================================================================
  Center     Atomic      Valence      Angular      Power
  Number     Number     Electrons     Momentum     of R      Exponent        Coefficient   SO-Coeffient
 ======================================================================================================
    1         24           14
                                      D and up 
                                                     1      329.2720539      -10.00000000    0.00000000
                                                     2       59.5487597      -57.94093980    0.00000000
                                                     2       14.8265966      -10.26232850    0.00000000
                                      S - D
                                                     0      100.0260653        3.00000000    0.00000000
                                                     1       67.8468124       25.25345990    0.00000000
                                                     2       34.6771006      210.64723660    0.00000000
                                                     2        7.6757005      235.28195870    0.00000000
                                                     2        7.2077427     -152.53434610    0.00000000
                                      P - D
                                                     0       47.9723321        5.00000000    0.00000000
                                                     1       59.6224873        5.63902660    0.00000000
                                                     2       26.0432600      164.83621980    0.00000000
                                                     2        6.5582692      106.01680180    0.00000000
                                                     2        6.1268236      -69.85854680    0.00000000
    2          6
                                   No pseudopotential on this center.
    3          6
                                   No pseudopotential on this center.
    4          8
                                   No pseudopotential on this center.
    5          8
                                   No pseudopotential on this center.
    6          6
                                   No pseudopotential on this center.
    7          6
                                   No pseudopotential on this center.
    8          8
                                   No pseudopotential on this center.
    9          8
                                   No pseudopotential on this center.
   10          6
                                   No pseudopotential on this center.
   11          8
                                   No pseudopotential on this center.
   12          6
                                   No pseudopotential on this center.
   13          8
                                   No pseudopotential on this center.
 ======================================================================================================
 Ernie: Thresh=  0.10000D-02 Tol=  0.10000D-05 Strict=F.
 Ernie:  1 primitive shells out of 198 were deleted.
 AO basis set in the form of general basis input (Overlap normalization):
      1 0
 S   3 1.00       0.000000000000
      0.1449000000D+01 -0.9746131246D-01
      0.5496000000D+00 -0.3542048247D+00
      0.1052000000D+00  0.1192073955D+01
 S   3 1.00       0.000000000000
      0.5361000000D+01 -0.3805688991D+00
      0.1449000000D+01  0.7795624981D+00
      0.5496000000D+00  0.4730776989D+00
 S   1 1.00       0.000000000000
      0.3640000000D-01  0.1000000000D+01
 P   3 1.00       0.000000000000
      0.1642000000D+02 -0.4613969753D-01
      0.1914000000D+01  0.6109964672D+00
      0.6241000000D+00  0.4859634739D+00
 P   1 1.00       0.000000000000
      0.6300000000D-01  0.1000000000D+01
 P   1 1.00       0.000000000000
      0.1900000000D-01  0.1000000000D+01
 D   4 1.00       0.000000000000
      0.2895000000D+02  0.3377870130D-01
      0.7708000000D+01  0.1780345068D+00
      0.2495000000D+01  0.4370008168D+00
      0.7655000000D+00  0.5941795228D+00
 D   1 1.00       0.000000000000
      0.1889000000D+00  0.1000000000D+01
 ****
      2 0
 S   6 1.00       0.000000000000
      0.2808064500D+04  0.2017829996D-02
      0.4211382800D+03  0.1543319997D-01
      0.9558661600D+02  0.7558154986D-01
      0.2673900400D+02  0.2478281995D+00
      0.8432826800D+01  0.4793724991D+00
      0.2760582100D+01  0.3338343794D+00
 S   2 1.00       0.000000000000
      0.5447004500D+01 -0.1435340191D+00
      0.4792422000D+00  0.1049122972D+01
 S   1 1.00       0.000000000000
      0.1461565300D+00  0.1000000000D+01
 P   4 1.00       0.000000000000
      0.1813085200D+02  0.2031875562D-01
      0.4099883200D+01  0.1226230166D+00
      0.1185837000D+01  0.3907622889D+00
      0.3685974000D+00  0.6324509736D+00
 P   1 1.00       0.000000000000
      0.1097199900D+00  0.1000000000D+01
 D   1 1.00       0.000000000000
      0.6000000000D+00  0.1000000000D+01
 ****
      3 0
 S   6 1.00       0.000000000000
      0.2808064500D+04  0.2017829996D-02
      0.4211382800D+03  0.1543319997D-01
      0.9558661600D+02  0.7558154986D-01
      0.2673900400D+02  0.2478281995D+00
      0.8432826800D+01  0.4793724991D+00
      0.2760582100D+01  0.3338343794D+00
 S   2 1.00       0.000000000000
      0.5447004500D+01 -0.1435340191D+00
      0.4792422000D+00  0.1049122972D+01
 S   1 1.00       0.000000000000
      0.1461565300D+00  0.1000000000D+01
 P   4 1.00       0.000000000000
      0.1813085200D+02  0.2031875562D-01
      0.4099883200D+01  0.1226230166D+00
      0.1185837000D+01  0.3907622889D+00
      0.3685974000D+00  0.6324509736D+00
 P   1 1.00       0.000000000000
      0.1097199900D+00  0.1000000000D+01
 D   1 1.00       0.000000000000
      0.6000000000D+00  0.1000000000D+01
 ****
      4 0
 S   6 1.00       0.000000000000
      0.5222902200D+04 -0.1936370009D-02
      0.7825399400D+03 -0.1485067007D-01
      0.1772674300D+03 -0.7331870035D-01
      0.4951668800D+02 -0.2451162312D+00
      0.1566644000D+02 -0.4802847023D+00
      0.5179359900D+01 -0.3359426516D+00
 S   2 1.00       0.000000000000
      0.1060144100D+02  0.1457791639D+00
      0.9423170500D+00 -0.1050152534D+01
 S   1 1.00       0.000000000000
      0.2774745700D+00  0.1000000000D+01
 P   4 1.00       0.000000000000
      0.3342412600D+02  0.2212942643D-01
      0.7622171400D+01  0.1356347421D+00
      0.2238209300D+01  0.4077050293D+00
      0.6867300100D+00  0.6089547199D+00
 P   1 1.00       0.000000000000
      0.1938135200D+00  0.1000000000D+01
 D   1 1.00       0.000000000000
      0.8000000000D+00  0.1000000000D+01
 ****
      5 0
 S   6 1.00       0.000000000000
      0.5222902200D+04 -0.1936370009D-02
      0.7825399400D+03 -0.1485067007D-01
      0.1772674300D+03 -0.7331870035D-01
      0.4951668800D+02 -0.2451162312D+00
      0.1566644000D+02 -0.4802847023D+00
      0.5179359900D+01 -0.3359426516D+00
 S   2 1.00       0.000000000000
      0.1060144100D+02  0.1457791639D+00
      0.9423170500D+00 -0.1050152534D+01
 S   1 1.00       0.000000000000
      0.2774745700D+00  0.1000000000D+01
 P   4 1.00       0.000000000000
      0.3342412600D+02  0.2212942643D-01
      0.7622171400D+01  0.1356347421D+00
      0.2238209300D+01  0.4077050293D+00
      0.6867300100D+00  0.6089547199D+00
 P   1 1.00       0.000000000000
      0.1938135200D+00  0.1000000000D+01
 D   1 1.00       0.000000000000
      0.8000000000D+00  0.1000000000D+01
 ****
      6 0
 S   6 1.00       0.000000000000
      0.2808064500D+04  0.2017829996D-02
      0.4211382800D+03  0.1543319997D-01
      0.9558661600D+02  0.7558154986D-01
      0.2673900400D+02  0.2478281995D+00
      0.8432826800D+01  0.4793724991D+00
      0.2760582100D+01  0.3338343794D+00
 S   2 1.00       0.000000000000
      0.5447004500D+01 -0.1435340191D+00
      0.4792422000D+00  0.1049122972D+01
 S   1 1.00       0.000000000000
      0.1461565300D+00  0.1000000000D+01
 P   4 1.00       0.000000000000
      0.1813085200D+02  0.2031875562D-01
      0.4099883200D+01  0.1226230166D+00
      0.1185837000D+01  0.3907622889D+00
      0.3685974000D+00  0.6324509736D+00
 P   1 1.00       0.000000000000
      0.1097199900D+00  0.1000000000D+01
 D   1 1.00       0.000000000000
      0.6000000000D+00  0.1000000000D+01
 ****
      7 0
 S   6 1.00       0.000000000000
      0.2808064500D+04  0.2017829996D-02
      0.4211382800D+03  0.1543319997D-01
      0.9558661600D+02  0.7558154986D-01
      0.2673900400D+02  0.2478281995D+00
      0.8432826800D+01  0.4793724991D+00
      0.2760582100D+01  0.3338343794D+00
 S   2 1.00       0.000000000000
      0.5447004500D+01 -0.1435340191D+00
      0.4792422000D+00  0.1049122972D+01
 S   1 1.00       0.000000000000
      0.1461565300D+00  0.1000000000D+01
 P   4 1.00       0.000000000000
      0.1813085200D+02  0.2031875562D-01
      0.4099883200D+01  0.1226230166D+00
      0.1185837000D+01  0.3907622889D+00
      0.3685974000D+00  0.6324509736D+00
 P   1 1.00       0.000000000000
      0.1097199900D+00  0.1000000000D+01
 D   1 1.00       0.000000000000
      0.6000000000D+00  0.1000000000D+01
 ****
      8 0
 S   6 1.00       0.000000000000
      0.5222902200D+04 -0.1936370009D-02
      0.7825399400D+03 -0.1485067007D-01
      0.1772674300D+03 -0.7331870035D-01
      0.4951668800D+02 -0.2451162312D+00
      0.1566644000D+02 -0.4802847023D+00
      0.5179359900D+01 -0.3359426516D+00
 S   2 1.00       0.000000000000
      0.1060144100D+02  0.1457791639D+00
      0.9423170500D+00 -0.1050152534D+01
 S   1 1.00       0.000000000000
      0.2774745700D+00  0.1000000000D+01
 P   4 1.00       0.000000000000
      0.3342412600D+02  0.2212942643D-01
      0.7622171400D+01  0.1356347421D+00
      0.2238209300D+01  0.4077050293D+00
      0.6867300100D+00  0.6089547199D+00
 P   1 1.00       0.000000000000
      0.1938135200D+00  0.1000000000D+01
 D   1 1.00       0.000000000000
      0.8000000000D+00  0.1000000000D+01
 ****
      9 0
 S   6 1.00       0.000000000000
      0.5222902200D+04 -0.1936370009D-02
      0.7825399400D+03 -0.1485067007D-01
      0.1772674300D+03 -0.7331870035D-01
      0.4951668800D+02 -0.2451162312D+00
      0.1566644000D+02 -0.4802847023D+00
      0.5179359900D+01 -0.3359426516D+00
 S   2 1.00       0.000000000000
      0.1060144100D+02  0.1457791639D+00
      0.9423170500D+00 -0.1050152534D+01
 S   1 1.00       0.000000000000
      0.2774745700D+00  0.1000000000D+01
 P   4 1.00       0.000000000000
      0.3342412600D+02  0.2212942643D-01
      0.7622171400D+01  0.1356347421D+00
      0.2238209300D+01  0.4077050293D+00
      0.6867300100D+00  0.6089547199D+00
 P   1 1.00       0.000000000000
      0.1938135200D+00  0.1000000000D+01
 D   1 1.00       0.000000000000
      0.8000000000D+00  0.1000000000D+01
 ****
     10 0
 S   6 1.00       0.000000000000
      0.2808064500D+04  0.2017829996D-02
      0.4211382800D+03  0.1543319997D-01
      0.9558661600D+02  0.7558154986D-01
      0.2673900400D+02  0.2478281995D+00
      0.8432826800D+01  0.4793724991D+00
      0.2760582100D+01  0.3338343794D+00
 S   2 1.00       0.000000000000
      0.5447004500D+01 -0.1435340191D+00
      0.4792422000D+00  0.1049122972D+01
 S   1 1.00       0.000000000000
      0.1461565300D+00  0.1000000000D+01
 P   4 1.00       0.000000000000
      0.1813085200D+02  0.2031875562D-01
      0.4099883200D+01  0.1226230166D+00
      0.1185837000D+01  0.3907622889D+00
      0.3685974000D+00  0.6324509736D+00
 P   1 1.00       0.000000000000
      0.1097199900D+00  0.1000000000D+01
 D   1 1.00       0.000000000000
      0.6000000000D+00  0.1000000000D+01
 ****
     11 0
 S   6 1.00       0.000000000000
      0.5222902200D+04 -0.1936370009D-02
      0.7825399400D+03 -0.1485067007D-01
      0.1772674300D+03 -0.7331870035D-01
      0.4951668800D+02 -0.2451162312D+00
      0.1566644000D+02 -0.4802847023D+00
      0.5179359900D+01 -0.3359426516D+00
 S   2 1.00       0.000000000000
      0.1060144100D+02  0.1457791639D+00
      0.9423170500D+00 -0.1050152534D+01
 S   1 1.00       0.000000000000
      0.2774745700D+00  0.1000000000D+01
 P   4 1.00       0.000000000000
      0.3342412600D+02  0.2212942643D-01
      0.7622171400D+01  0.1356347421D+00
      0.2238209300D+01  0.4077050293D+00
      0.6867300100D+00  0.6089547199D+00
 P   1 1.00       0.000000000000
      0.1938135200D+00  0.1000000000D+01
 D   1 1.00       0.000000000000
      0.8000000000D+00  0.1000000000D+01
 ****
     12 0
 S   6 1.00       0.000000000000
      0.2808064500D+04  0.2017829996D-02
      0.4211382800D+03  0.1543319997D-01
      0.9558661600D+02  0.7558154986D-01
      0.2673900400D+02  0.2478281995D+00
      0.8432826800D+01  0.4793724991D+00
      0.2760582100D+01  0.3338343794D+00
 S   2 1.00       0.000000000000
      0.5447004500D+01 -0.1435340191D+00
      0.4792422000D+00  0.1049122972D+01
 S   1 1.00       0.000000000000
      0.1461565300D+00  0.1000000000D+01
 P   4 1.00       0.000000000000
      0.1813085200D+02  0.2031875562D-01
      0.4099883200D+01  0.1226230166D+00
      0.1185837000D+01  0.3907622889D+00
      0.3685974000D+00  0.6324509736D+00
 P   1 1.00       0.000000000000
      0.1097199900D+00  0.1000000000D+01
 D   1 1.00       0.000000000000
      0.6000000000D+00  0.1000000000D+01
 ****
     13 0
 S   6 1.00       0.000000000000
      0.5222902200D+04 -0.1936370009D-02
      0.7825399400D+03 -0.1485067007D-01
      0.1772674300D+03 -0.7331870035D-01
      0.4951668800D+02 -0.2451162312D+00
      0.1566644000D+02 -0.4802847023D+00
      0.5179359900D+01 -0.3359426516D+00
 S   2 1.00       0.000000000000
      0.1060144100D+02  0.1457791639D+00
      0.9423170500D+00 -0.1050152534D+01
 S   1 1.00       0.000000000000
      0.2774745700D+00  0.1000000000D+01
 P   4 1.00       0.000000000000
      0.3342412600D+02  0.2212942643D-01
      0.7622171400D+01  0.1356347421D+00
      0.2238209300D+01  0.4077050293D+00
      0.6867300100D+00  0.6089547199D+00
 P   1 1.00       0.000000000000
      0.1938135200D+00  0.1000000000D+01
 D   1 1.00       0.000000000000
      0.8000000000D+00  0.1000000000D+01
 ****

 There are   204 symmetry adapted cartesian basis functions of A   symmetry.
 There are   204 symmetry adapted basis functions of A   symmetry.
   204 basis functions,   412 primitive gaussians,   204 cartesian basis functions
    49 alpha electrons       49 beta electrons
       nuclear repulsion energy       798.6768072119 Hartrees.
 IExCor=  402 DFT=T Ex+Corr=B3LYP ExCW=0 ScaHFX=  0.200000
 ScaDFX=  0.800000  0.720000  1.000000  0.810000 ScalE2=  1.000000  1.000000
 IRadAn=      0 IRanWt=     -1 IRanGd=            0 ICorTp=0 IEmpDi=  4
 NAtoms=   13 NActive=   13 NUniq=   13 SFac= 1.00D+00 NAtFMM=   60 NAOKFM=F Big=F
 Integral buffers will be    131072 words long.
 Raffenetti 2 integral format.
 Two-electron integral symmetry is turned on.
 Leave Link  301 at Fri Dec 10 11:30:06 2021, MaxMem=  2147483648 cpu:         0.7
 (Enter /ddn/data/hamilton6/apps/gaussian/g09D.01/g09/l302.exe)
 NPDir=0 NMtPBC=     1 NCelOv=     1 NCel=       1 NClECP=     1 NCelD=      1
         NCelK=      1 NCelE2=     1 NClLst=     1 CellRange=     0.0.
 One-electron integrals computed using PRISM.
   1 Symmetry operations used in ECPInt.
 ECPInt:  NShTT=    3240 NPrTT=   19782 LenC2=    3166 LenP2D=   13236.
 LDataN:  DoStor=T MaxTD1= 4 Len=   56
 NBasis=   204 RedAO= T EigKep=  1.45D-03  NBF=   204
 NBsUse=   204 1.00D-06 EigRej= -1.00D+00 NBFU=   204
 Precomputing XC quadrature grid using
 IXCGrd= 4 IRadAn=           0 IRanWt=          -1 IRanGd=           0 AccXCQ= 0.00D+00.
 Generated NRdTot=       0 NPtTot=           0 NUsed=           0 NTot=          32
 NSgBfM=   204   204   204   204   204 MxSgAt=    13 MxSgA2=    13.
 Leave Link  302 at Fri Dec 10 11:30:07 2021, MaxMem=  2147483648 cpu:         2.2
 (Enter /ddn/data/hamilton6/apps/gaussian/g09D.01/g09/l303.exe)
 DipDrv:  MaxL=1.
 Leave Link  303 at Fri Dec 10 11:30:07 2021, MaxMem=  2147483648 cpu:         0.4
 (Enter /ddn/data/hamilton6/apps/gaussian/g09D.01/g09/l401.exe)
 ExpMin= 1.90D-02 ExpMax= 5.22D+03 ExpMxC= 7.83D+02 IAcc=3 IRadAn=         5 AccDes= 0.00D+00
 Harris functional with IExCor=  402 and IRadAn=       5 diagonalized for initial guess.
 HarFok:  IExCor=  402 AccDes= 0.00D+00 IRadAn=         5 IDoV= 1 UseB2=F ITyADJ=14
 ICtDFT=  3500011 ScaDFX=  1.000000  1.000000  1.000000  1.000000
 FoFCou: FMM=F IPFlag=           0 FMFlag=      100000 FMFlg1=           0
         NFxFlg=           0 DoJE=T BraDBF=F KetDBF=T FulRan=T
         wScrn=  0.000000 ICntrl=     500 IOpCl=  0 I1Cent=   200000004 NGrid=           0
         NMat0=    1 NMatS0=      1 NMatT0=    0 NMatD0=    1 NMtDS0=    0 NMtDT0=    0
 Petite list used in FoFCou.
 Harris En= -766.625614255015    
 JPrj=0 DoOrth=F DoCkMO=F.
 Leave Link  401 at Fri Dec 10 11:30:08 2021, MaxMem=  2147483648 cpu:         7.2
 (Enter /ddn/data/hamilton6/apps/gaussian/g09D.01/g09/l502.exe)
 Closed shell SCF:
 Using DIIS extrapolation, IDIIS=  1040.
 Integral symmetry usage will be decided dynamically.
 Keep R1 ints in memory in canonical form, NReq=223078529.
 IVT=      146564 IEndB=      146564 NGot=  2147483648 MDV=  1928712580
 LenX=  1928712580 LenY=  1928670523
 Requested convergence on RMS density matrix=1.00D-08 within 128 cycles.
 Requested convergence on MAX density matrix=1.00D-06.
 Requested convergence on             energy=1.00D-06.
 No special actions if energy rises.
 FoFCou: FMM=F IPFlag=           0 FMFlag=           0 FMFlg1=           0
         NFxFlg=           0 DoJE=F BraDBF=F KetDBF=F FulRan=T
         wScrn=  0.000000 ICntrl=     600 IOpCl=  0 I1Cent=           0 NGrid=           0
         NMat0=    1 NMatS0=  20910 NMatT0=    0 NMatD0=    1 NMtDS0=    0 NMtDT0=    0
 Symmetry not used in FoFCou.

 Cycle   1  Pass 1  IDiag  1:
 E= -764.871670009065    
 DIIS: error= 1.30D-01 at cycle   1 NSaved=   1.
 NSaved= 1 IEnMin= 1 EnMin= -764.871670009065     IErMin= 1 ErrMin= 1.30D-01
 ErrMax= 1.30D-01  0.00D+00 EMaxC= 1.00D-01 BMatC= 1.80D+00 BMatP= 1.80D+00
 IDIUse=3 WtCom= 0.00D+00 WtEn= 1.00D+00
 Coeff-Com:  0.100D+01
 Coeff-En:   0.100D+01
 Coeff:      0.100D+01
 Gap=     0.385 Goal=   None    Shift=    0.000
 GapD=    0.385 DampG=1.000 DampE=0.125 DampFc=0.1250 IDamp=-1.
 Damping current iteration by 1.25D-01
 RMSDP=2.65D-02 MaxDP=1.01D+00              OVMax= 8.51D-01

 Cycle   2  Pass 1  IDiag  1:
 E= -765.514425794310     Delta-E=       -0.642755785245 Rises=F Damp=T
 DIIS: error= 5.65D-02 at cycle   2 NSaved=   2.
 NSaved= 2 IEnMin= 2 EnMin= -765.514425794310     IErMin= 2 ErrMin= 5.65D-02
 ErrMax= 5.65D-02  0.00D+00 EMaxC= 1.00D-01 BMatC= 3.55D-01 BMatP= 1.80D+00
 IDIUse=3 WtCom= 4.35D-01 WtEn= 5.65D-01
 Coeff-Com: -0.628D+00 0.163D+01
 Coeff-En:   0.000D+00 0.100D+01
 Coeff:     -0.273D+00 0.127D+01
 Gap=    -0.007 Goal=   None    Shift=    0.000
 RMSDP=9.72D-03 MaxDP=5.36D-01 DE=-6.43D-01 OVMax= 9.29D-01

 Cycle   3  Pass 1  IDiag  1:
 E= -762.651123463733     Delta-E=        2.863302330577 Rises=F Damp=F
 DIIS: error= 2.43D-01 at cycle   3 NSaved=   3.
 NSaved= 3 IEnMin= 2 EnMin= -765.514425794310     IErMin= 2 ErrMin= 5.65D-02
 ErrMax= 2.43D-01  0.00D+00 EMaxC= 1.00D-01 BMatC= 5.23D+00 BMatP= 3.55D-01
 IDIUse=2 WtCom= 0.00D+00 WtEn= 1.00D+00
 EnCoef did   100 forward-backward iterations
 Coeff-En:   0.609D+00 0.268D-01 0.364D+00
 Coeff:      0.609D+00 0.268D-01 0.364D+00
 Gap=     0.342 Goal=   None    Shift=    0.000
 RMSDP=6.66D-03 MaxDP=2.94D-01 DE= 2.86D+00 OVMax= 2.66D-01

 Cycle   4  Pass 1  IDiag  1:
 E= -765.698673196870     Delta-E=       -3.047549733137 Rises=F Damp=F
 DIIS: error= 9.71D-02 at cycle   4 NSaved=   4.
 NSaved= 4 IEnMin= 4 EnMin= -765.698673196870     IErMin= 2 ErrMin= 5.65D-02
 ErrMax= 9.71D-02  0.00D+00 EMaxC= 1.00D-01 BMatC= 1.16D+00 BMatP= 3.55D-01
 IDIUse=2 WtCom= 0.00D+00 WtEn= 1.00D+00
 EnCoef did   100 forward-backward iterations
 Coeff-En:   0.423D+00 0.743D-02 0.112D+00 0.458D+00
 Coeff:      0.423D+00 0.743D-02 0.112D+00 0.458D+00
 Gap=     0.231 Goal=   None    Shift=    0.000
 RMSDP=4.10D-03 MaxDP=1.38D-01 DE=-3.05D+00 OVMax= 1.73D-01

 Cycle   5  Pass 1  IDiag  1:
 E= -766.189307520516     Delta-E=       -0.490634323646 Rises=F Damp=F
 DIIS: error= 5.29D-02 at cycle   5 NSaved=   5.
 NSaved= 5 IEnMin= 5 EnMin= -766.189307520516     IErMin= 5 ErrMin= 5.29D-02
 ErrMax= 5.29D-02  0.00D+00 EMaxC= 1.00D-01 BMatC= 4.03D-01 BMatP= 3.55D-01
 IDIUse=2 WtCom= 0.00D+00 WtEn= 1.00D+00
 EnCoef did     4 forward-backward iterations
 Coeff-En:   0.186D+00 0.000D+00 0.000D+00 0.310D+00 0.503D+00
 Coeff:      0.186D+00 0.000D+00 0.000D+00 0.310D+00 0.503D+00
 Gap=     0.167 Goal=   None    Shift=    0.000
 RMSDP=3.33D-03 MaxDP=1.56D-01 DE=-4.91D-01 OVMax= 1.58D-01

 Cycle   6  Pass 1  IDiag  1:
 E= -766.323288509550     Delta-E=       -0.133980989034 Rises=F Damp=F
 DIIS: error= 5.34D-02 at cycle   6 NSaved=   6.
 NSaved= 6 IEnMin= 6 EnMin= -766.323288509550     IErMin= 5 ErrMin= 5.29D-02
 ErrMax= 5.34D-02  0.00D+00 EMaxC= 1.00D-01 BMatC= 2.28D-01 BMatP= 3.55D-01
 IDIUse=3 WtCom= 4.66D-01 WtEn= 5.34D-01
 EnCoef did     2 forward-backward iterations
 Coeff-Com: -0.116D+00 0.156D+00-0.262D-01 0.130D+00 0.387D+00 0.469D+00
 Coeff-En:   0.000D+00 0.000D+00 0.000D+00 0.117D+00 0.340D+00 0.543D+00
 Coeff:     -0.541D-01 0.726D-01-0.122D-01 0.123D+00 0.362D+00 0.508D+00
 Gap=     0.216 Goal=   None    Shift=    0.000
 RMSDP=2.57D-03 MaxDP=1.51D-01 DE=-1.34D-01 OVMax= 1.72D-01

 Cycle   7  Pass 1  IDiag  1:
 E= -766.422611930578     Delta-E=       -0.099323421028 Rises=F Damp=F
 DIIS: error= 4.01D-02 at cycle   7 NSaved=   7.
 NSaved= 7 IEnMin= 7 EnMin= -766.422611930578     IErMin= 7 ErrMin= 4.01D-02
 ErrMax= 4.01D-02  0.00D+00 EMaxC= 1.00D-01 BMatC= 1.08D-01 BMatP= 2.28D-01
 IDIUse=3 WtCom= 5.99D-01 WtEn= 4.01D-01
 Coeff-Com: -0.406D-01 0.434D-01-0.228D-01-0.151D-01 0.156D+00 0.385D+00
 Coeff-Com:  0.494D+00
 Coeff-En:   0.000D+00 0.000D+00 0.000D+00 0.000D+00 0.000D+00 0.370D+00
 Coeff-En:   0.630D+00
 Coeff:     -0.243D-01 0.260D-01-0.136D-01-0.905D-02 0.937D-01 0.379D+00
 Coeff:      0.548D+00
 Gap=     0.203 Goal=   None    Shift=    0.000
 RMSDP=1.22D-03 MaxDP=6.55D-02 DE=-9.93D-02 OVMax= 7.92D-02

 Cycle   8  Pass 1  IDiag  1:
 E= -766.486728930405     Delta-E=       -0.064116999827 Rises=F Damp=F
 DIIS: error= 8.53D-03 at cycle   8 NSaved=   8.
 NSaved= 8 IEnMin= 8 EnMin= -766.486728930405     IErMin= 8 ErrMin= 8.53D-03
 ErrMax= 8.53D-03  0.00D+00 EMaxC= 1.00D-01 BMatC= 1.28D-02 BMatP= 1.08D-01
 IDIUse=3 WtCom= 9.15D-01 WtEn= 8.53D-02
 Coeff-Com: -0.231D-01 0.165D-01-0.927D-02 0.265D-02-0.534D-02 0.155D+00
 Coeff-Com:  0.313D+00 0.550D+00
 Coeff-En:   0.000D+00 0.000D+00 0.000D+00 0.000D+00 0.000D+00 0.000D+00
 Coeff-En:   0.177D+00 0.823D+00
 Coeff:     -0.211D-01 0.151D-01-0.848D-02 0.243D-02-0.488D-02 0.142D+00
 Coeff:      0.302D+00 0.574D+00
 Gap=     0.206 Goal=   None    Shift=    0.000
 RMSDP=3.69D-04 MaxDP=1.10D-02 DE=-6.41D-02 OVMax= 1.57D-02

 Cycle   9  Pass 1  IDiag  1:
 E= -766.495807652771     Delta-E=       -0.009078722366 Rises=F Damp=F
 DIIS: error= 1.26D-03 at cycle   9 NSaved=   9.
 NSaved= 9 IEnMin= 9 EnMin= -766.495807652771     IErMin= 9 ErrMin= 1.26D-03
 ErrMax= 1.26D-03  0.00D+00 EMaxC= 1.00D-01 BMatC= 2.96D-04 BMatP= 1.28D-02
 IDIUse=3 WtCom= 9.87D-01 WtEn= 1.26D-02
 Coeff-Com: -0.443D-02 0.284D-02-0.232D-02-0.175D-02-0.958D-02 0.313D-01
 Coeff-Com:  0.856D-01 0.250D+00 0.648D+00
 Coeff-En:   0.000D+00 0.000D+00 0.000D+00 0.000D+00 0.000D+00 0.000D+00
 Coeff-En:   0.000D+00 0.207D-01 0.979D+00
 Coeff:     -0.438D-02 0.281D-02-0.229D-02-0.173D-02-0.946D-02 0.309D-01
 Coeff:      0.846D-01 0.248D+00 0.652D+00
 Gap=     0.206 Goal=   None    Shift=    0.000
 RMSDP=4.78D-05 MaxDP=1.81D-03 DE=-9.08D-03 OVMax= 2.22D-03

 Cycle  10  Pass 1  IDiag  1:
 E= -766.496006291345     Delta-E=       -0.000198638574 Rises=F Damp=F
 DIIS: error= 3.28D-04 at cycle  10 NSaved=  10.
 NSaved=10 IEnMin=10 EnMin= -766.496006291345     IErMin=10 ErrMin= 3.28D-04
 ErrMax= 3.28D-04  0.00D+00 EMaxC= 1.00D-01 BMatC= 1.45D-05 BMatP= 2.96D-04
 IDIUse=3 WtCom= 9.97D-01 WtEn= 3.28D-03
 Coeff-Com:  0.125D-03 0.256D-03-0.356D-03-0.225D-02-0.343D-02 0.129D-02
 Coeff-Com:  0.982D-02 0.805D-01 0.495D+00 0.419D+00
 Coeff-En:   0.000D+00 0.000D+00 0.000D+00 0.000D+00 0.000D+00 0.000D+00
 Coeff-En:   0.000D+00 0.000D+00 0.000D+00 0.100D+01
 Coeff:      0.124D-03 0.255D-03-0.355D-03-0.224D-02-0.342D-02 0.129D-02
 Coeff:      0.979D-02 0.802D-01 0.493D+00 0.421D+00
 Gap=     0.206 Goal=   None    Shift=    0.000
 RMSDP=9.36D-06 MaxDP=3.34D-04 DE=-1.99D-04 OVMax= 3.46D-04

 Cycle  11  Pass 1  IDiag  1:
 E= -766.496014811487     Delta-E=       -0.000008520142 Rises=F Damp=F
 DIIS: error= 1.92D-04 at cycle  11 NSaved=  11.
 NSaved=11 IEnMin=11 EnMin= -766.496014811487     IErMin=11 ErrMin= 1.92D-04
 ErrMax= 1.92D-04  0.00D+00 EMaxC= 1.00D-01 BMatC= 2.74D-06 BMatP= 1.45D-05
 IDIUse=3 WtCom= 9.98D-01 WtEn= 1.92D-03
 Coeff-Com:  0.319D-03-0.141D-03-0.112D-03-0.694D-03-0.653D-03 0.342D-03
 Coeff-Com: -0.110D-02 0.181D-01 0.136D+00 0.148D+00 0.700D+00
 Coeff-En:   0.000D+00 0.000D+00 0.000D+00 0.000D+00 0.000D+00 0.000D+00
 Coeff-En:   0.000D+00 0.000D+00 0.000D+00 0.000D+00 0.100D+01
 Coeff:      0.318D-03-0.141D-03-0.112D-03-0.692D-03-0.652D-03 0.341D-03
 Coeff:     -0.110D-02 0.180D-01 0.136D+00 0.148D+00 0.700D+00
 Gap=     0.206 Goal=   None    Shift=    0.000
 RMSDP=3.25D-06 MaxDP=1.09D-04 DE=-8.52D-06 OVMax= 1.85D-04

 Cycle  12  Pass 1  IDiag  1:
 E= -766.496016178759     Delta-E=       -0.000001367272 Rises=F Damp=F
 DIIS: error= 1.01D-04 at cycle  12 NSaved=  12.
 NSaved=12 IEnMin=12 EnMin= -766.496016178759     IErMin=12 ErrMin= 1.01D-04
 ErrMax= 1.01D-04  0.00D+00 EMaxC= 1.00D-01 BMatC= 7.50D-07 BMatP= 2.74D-06
 IDIUse=3 WtCom= 9.99D-01 WtEn= 1.01D-03
 Coeff-Com:  0.108D-03-0.865D-04-0.256D-05 0.114D-03-0.648D-04 0.131D-03
 Coeff-Com: -0.294D-02-0.161D-02-0.176D-01-0.615D-03 0.315D+00 0.707D+00
 Coeff-En:   0.000D+00 0.000D+00 0.000D+00 0.000D+00 0.000D+00 0.000D+00
 Coeff-En:   0.000D+00 0.000D+00 0.000D+00 0.000D+00 0.000D+00 0.100D+01
 Coeff:      0.108D-03-0.864D-04-0.256D-05 0.114D-03-0.648D-04 0.130D-03
 Coeff:     -0.294D-02-0.161D-02-0.175D-01-0.615D-03 0.315D+00 0.707D+00
 Gap=     0.206 Goal=   None    Shift=    0.000
 RMSDP=2.33D-06 MaxDP=1.01D-04 DE=-1.37D-06 OVMax= 1.30D-04

 Cycle  13  Pass 1  IDiag  1:
 E= -766.496016679285     Delta-E=       -0.000000500526 Rises=F Damp=F
 DIIS: error= 1.90D-05 at cycle  13 NSaved=  13.
 NSaved=13 IEnMin=13 EnMin= -766.496016679285     IErMin=13 ErrMin= 1.90D-05
 ErrMax= 1.90D-05  0.00D+00 EMaxC= 1.00D-01 BMatC= 2.73D-08 BMatP= 7.50D-07
 IDIUse=1 WtCom= 1.00D+00 WtEn= 0.00D+00
 Coeff-Com:  0.480D-04-0.471D-04-0.382D-06 0.772D-04-0.297D-04 0.114D-03
 Coeff-Com: -0.144D-02-0.129D-02-0.141D-01-0.535D-02 0.122D+00 0.341D+00
 Coeff-Com:  0.559D+00
 Coeff:      0.480D-04-0.471D-04-0.382D-06 0.772D-04-0.297D-04 0.114D-03
 Coeff:     -0.144D-02-0.129D-02-0.141D-01-0.535D-02 0.122D+00 0.341D+00
 Coeff:      0.559D+00
 Gap=     0.206 Goal=   None    Shift=    0.000
 RMSDP=4.09D-07 MaxDP=1.25D-05 DE=-5.01D-07 OVMax= 2.43D-05

 Cycle  14  Pass 1  IDiag  1:
 E= -766.496016694910     Delta-E=       -0.000000015625 Rises=F Damp=F
 DIIS: error= 8.14D-06 at cycle  14 NSaved=  14.
 NSaved=14 IEnMin=14 EnMin= -766.496016694910     IErMin=14 ErrMin= 8.14D-06
 ErrMax= 8.14D-06  0.00D+00 EMaxC= 1.00D-01 BMatC= 5.08D-09 BMatP= 2.73D-08
 IDIUse=1 WtCom= 1.00D+00 WtEn= 0.00D+00
 Coeff-Com:  0.606D-06-0.896D-05-0.167D-05 0.711D-05-0.571D-05 0.717D-04
 Coeff-Com:  0.225D-04-0.213D-03-0.334D-02-0.271D-02-0.269D-01-0.160D-01
 Coeff-Com:  0.350D+00 0.699D+00
 Coeff:      0.606D-06-0.896D-05-0.167D-05 0.711D-05-0.571D-05 0.717D-04
 Coeff:      0.225D-04-0.213D-03-0.334D-02-0.271D-02-0.269D-01-0.160D-01
 Coeff:      0.350D+00 0.699D+00
 Gap=     0.206 Goal=   None    Shift=    0.000
 RMSDP=2.31D-07 MaxDP=8.79D-06 DE=-1.56D-08 OVMax= 1.22D-05

 Cycle  15  Pass 1  IDiag  1:
 E= -766.496016698545     Delta-E=       -0.000000003636 Rises=F Damp=F
 DIIS: error= 4.68D-07 at cycle  15 NSaved=  15.
 NSaved=15 IEnMin=15 EnMin= -766.496016698545     IErMin=15 ErrMin= 4.68D-07
 ErrMax= 4.68D-07  0.00D+00 EMaxC= 1.00D-01 BMatC= 2.11D-11 BMatP= 5.08D-09
 IDIUse=1 WtCom= 1.00D+00 WtEn= 0.00D+00
 Coeff-Com: -0.360D-06-0.296D-05-0.721D-06 0.200D-05-0.390D-05 0.298D-04
 Coeff-Com:  0.243D-04-0.443D-04-0.114D-02-0.109D-02-0.137D-01-0.117D-01
 Coeff-Com:  0.149D+00 0.317D+00 0.561D+00
 Coeff:     -0.360D-06-0.296D-05-0.721D-06 0.200D-05-0.390D-05 0.298D-04
 Coeff:      0.243D-04-0.443D-04-0.114D-02-0.109D-02-0.137D-01-0.117D-01
 Coeff:      0.149D+00 0.317D+00 0.561D+00
 Gap=     0.206 Goal=   None    Shift=    0.000
 RMSDP=1.65D-08 MaxDP=8.96D-07 DE=-3.64D-09 OVMax= 7.92D-07

 Cycle  16  Pass 1  IDiag  1:
 E= -766.496016698531     Delta-E=        0.000000000015 Rises=F Damp=F
 DIIS: error= 1.19D-07 at cycle  16 NSaved=  16.
 NSaved=16 IEnMin=15 EnMin= -766.496016698545     IErMin=16 ErrMin= 1.19D-07
 ErrMax= 1.19D-07  0.00D+00 EMaxC= 1.00D-01 BMatC= 5.48D-12 BMatP= 2.11D-11
 IDIUse=1 WtCom= 1.00D+00 WtEn= 0.00D+00
 Coeff-Com: -0.377D-06 0.457D-06-0.467D-07-0.408D-06-0.203D-05 0.162D-05
 Coeff-Com:  0.703D-05 0.384D-04 0.138D-03-0.385D-04-0.242D-02-0.360D-02
 Coeff-Com:  0.140D-01 0.411D-01 0.457D+00 0.494D+00
 Coeff:     -0.377D-06 0.457D-06-0.467D-07-0.408D-06-0.203D-05 0.162D-05
 Coeff:      0.703D-05 0.384D-04 0.138D-03-0.385D-04-0.242D-02-0.360D-02
 Coeff:      0.140D-01 0.411D-01 0.457D+00 0.494D+00
 Gap=     0.206 Goal=   None    Shift=    0.000
 RMSDP=7.96D-09 MaxDP=4.16D-07 DE= 1.46D-11 OVMax= 4.41D-07

 SCF Done:  E(RB3LYP) =  -766.496016699     A.U. after   16 cycles
            NFock= 16  Conv=0.80D-08     -V/T= 2.0702
 KE= 7.162414051848D+02 PE=-3.380734726408D+03 EE= 1.099320497313D+03
 Leave Link  502 at Fri Dec 10 11:30:21 2021, MaxMem=  2147483648 cpu:        66.1
 (Enter /ddn/data/hamilton6/apps/gaussian/g09D.01/g09/l601.exe)
 Copying SCF densities to generalized density rwf, IOpCl= 0 IROHF=0.

 **********************************************************************

            Population analysis using the SCF density.

 **********************************************************************

 Orbital symmetries:
       Occupied  (A) (A) (A) (A) (A) (A) (A) (A) (A) (A) (A) (A)
                 (A) (A) (A) (A) (A) (A) (A) (A) (A) (A) (A) (A)
                 (A) (A) (A) (A) (A) (A) (A) (A) (A) (A) (A) (A)
                 (A) (A) (A) (A) (A) (A) (A) (A) (A) (A) (A) (A)
                 (A)
       Virtual   (A) (A) (A) (A) (A) (A) (A) (A) (A) (A) (A) (A)
                 (A) (A) (A) (A) (A) (A) (A) (A) (A) (A) (A) (A)
                 (A) (A) (A) (A) (A) (A) (A) (A) (A) (A) (A) (A)
                 (A) (A) (A) (A) (A) (A) (A) (A) (A) (A) (A) (A)
                 (A) (A) (A) (A) (A) (A) (A) (A) (A) (A) (A) (A)
                 (A) (A) (A) (A) (A) (A) (A) (A) (A) (A) (A) (A)
                 (A) (A) (A) (A) (A) (A) (A) (A) (A) (A) (A) (A)
                 (A) (A) (A) (A) (A) (A) (A) (A) (A) (A) (A) (A)
                 (A) (A) (A) (A) (A) (A) (A) (A) (A) (A) (A) (A)
                 (A) (A) (A) (A) (A) (A) (A) (A) (A) (A) (A) (A)
                 (A) (A) (A) (A) (A) (A) (A) (A) (A) (A) (A) (A)
                 (A) (A) (A) (A) (A) (A) (A) (A) (A) (A) (A) (A)
                 (A) (A) (A) (A) (A) (A) (A) (A) (A) (A) (A)
 The electronic state is 1-A.
 Alpha  occ. eigenvalues --  -19.24339 -19.24339 -19.24339 -19.24338 -19.24337
 Alpha  occ. eigenvalues --  -19.24336 -10.33505 -10.33505 -10.33505 -10.33503
 Alpha  occ. eigenvalues --  -10.33503 -10.33502  -2.90702  -1.85883  -1.85881
 Alpha  occ. eigenvalues --   -1.85873  -1.16239  -1.16107  -1.16107  -1.16105
 Alpha  occ. eigenvalues --   -1.16085  -1.16084  -0.63050  -0.58630  -0.58627
 Alpha  occ. eigenvalues --   -0.58619  -0.58333  -0.58333  -0.51994  -0.49534
 Alpha  occ. eigenvalues --   -0.49532  -0.49527  -0.49174  -0.49170  -0.49159
 Alpha  occ. eigenvalues --   -0.47607  -0.47601  -0.47599  -0.46918  -0.46918
 Alpha  occ. eigenvalues --   -0.46918  -0.46352  -0.46351  -0.42658  -0.42652
 Alpha  occ. eigenvalues --   -0.42634  -0.26973  -0.26969  -0.26961
 Alpha virt. eigenvalues --   -0.06395  -0.06389  -0.06373  -0.04441  -0.04423
 Alpha virt. eigenvalues --   -0.04416  -0.02615  -0.02614  -0.02611   0.00818
 Alpha virt. eigenvalues --    0.00821   0.00822   0.01001   0.01003   0.01158
 Alpha virt. eigenvalues --    0.01159   0.01161   0.01192   0.16614   0.16622
 Alpha virt. eigenvalues --    0.16636   0.20724   0.20725   0.26253   0.26256
 Alpha virt. eigenvalues --    0.26258   0.33443   0.33484   0.33496   0.33539
 Alpha virt. eigenvalues --    0.34397   0.34400   0.34416   0.45957   0.45958
 Alpha virt. eigenvalues --    0.45958   0.47893   0.48104   0.48123   0.48191
 Alpha virt. eigenvalues --    0.52625   0.52626   0.54852   0.54854   0.56044
 Alpha virt. eigenvalues --    0.57281   0.57360   0.57383   0.61513   0.61545
 Alpha virt. eigenvalues --    0.61556   0.63095   0.63121   0.63130   0.68565
 Alpha virt. eigenvalues --    0.68586   0.68658   0.72887   0.72903   0.72908
 Alpha virt. eigenvalues --    0.75649   0.77229   0.77232   0.78737   0.78740
 Alpha virt. eigenvalues --    0.78742   0.86741   0.86742   0.86745   0.88437
 Alpha virt. eigenvalues --    0.88471   0.88495   1.10348   1.16319   1.16320
 Alpha virt. eigenvalues --    1.16859   1.16870   1.16905   1.17359   1.17360
 Alpha virt. eigenvalues --    1.20442   1.20518   1.20544   1.20928   1.26129
 Alpha virt. eigenvalues --    1.31369   1.31402   1.31413   1.37566   1.37569
 Alpha virt. eigenvalues --    1.37571   1.43140   1.43141   1.43211   1.45733
 Alpha virt. eigenvalues --    1.45777   1.45911   1.56063   1.56066   1.65717
 Alpha virt. eigenvalues --    1.65759   1.65774   1.70661   1.70724   1.70743
 Alpha virt. eigenvalues --    1.81732   1.83322   1.83322   1.83930   1.83959
 Alpha virt. eigenvalues --    1.83967   1.84877   1.85473   1.85484   1.85487
 Alpha virt. eigenvalues --    1.89887   1.89888   1.99866   1.99899   1.99909
 Alpha virt. eigenvalues --    2.17372   2.17374   2.33644   2.33658   2.33662
 Alpha virt. eigenvalues --    2.34090   2.36439   2.36444   2.36462   2.39732
 Alpha virt. eigenvalues --    2.39733   2.39734   2.49949   2.49991   2.50006
 Alpha virt. eigenvalues --    2.56370   2.56395   2.56401   2.57873   2.64540
 Alpha virt. eigenvalues --    2.64542   3.03239   3.03328   3.03358   3.04457
 Alpha virt. eigenvalues --    3.09201   3.09205   3.92599   4.15045   4.15045
 Alpha virt. eigenvalues --    4.27183   4.27189   4.27189  14.56734  47.88574
          Condensed to atoms (all electrons):
               1          2          3          4          5          6
     1  Cr  12.739812   0.280432   0.280455   0.018765   0.018765   0.280546
     2  C    0.280432   4.959130  -0.039106   0.000321   0.640315  -0.018832
     3  C    0.280455  -0.039106   4.959241   0.640261   0.000321  -0.018567
     4  O    0.018765   0.000321   0.640261   7.511404   0.000000  -0.003380
     5  O    0.018765   0.640315   0.000321   0.000000   7.511293  -0.003385
     6  C    0.280546  -0.018832  -0.018567  -0.003380  -0.003385   4.959043
     7  C    0.280570  -0.018574  -0.018862  -0.003379  -0.003382  -0.039097
     8  O    0.018763  -0.003378  -0.003383   0.000207   0.000205   0.000321
     9  O    0.018758  -0.003390  -0.003374   0.000204   0.000207   0.640286
    10  C    0.280518  -0.018863  -0.018612  -0.003375  -0.003375  -0.018502
    11  O    0.018771  -0.003378  -0.003376   0.000204   0.000206  -0.003381
    12  C    0.280444  -0.018536  -0.018834  -0.003394  -0.003382  -0.018919
    13  O    0.018756  -0.003378  -0.003394   0.000208   0.000205  -0.003378
               7          8          9         10         11         12
     1  Cr   0.280570   0.018763   0.018758   0.280518   0.018771   0.280444
     2  C   -0.018574  -0.003378  -0.003390  -0.018863  -0.003378  -0.018536
     3  C   -0.018862  -0.003383  -0.003374  -0.018612  -0.003376  -0.018834
     4  O   -0.003379   0.000207   0.000204  -0.003375   0.000204  -0.003394
     5  O   -0.003382   0.000205   0.000207  -0.003375   0.000206  -0.003382
     6  C   -0.039097   0.000321   0.640286  -0.018502  -0.003381  -0.018919
     7  C    4.959115   0.640297   0.000321  -0.019035  -0.003398  -0.018445
     8  O    0.640297   7.511311   0.000000  -0.003396   0.000210  -0.003370
     9  O    0.000321   0.000000   7.511361  -0.003384   0.000204  -0.003374
    10  C   -0.019035  -0.003396  -0.003384   4.959298   0.640244  -0.039090
    11  O   -0.003398   0.000210   0.000204   0.640244   7.511407   0.000321
    12  C   -0.018445  -0.003370  -0.003374  -0.039090   0.000321   4.959009
    13  O   -0.003367   0.000202   0.000206   0.000321   0.000000   0.640295
              13
     1  Cr   0.018756
     2  C   -0.003378
     3  C   -0.003394
     4  O    0.000208
     5  O    0.000205
     6  C   -0.003378
     7  C   -0.003367
     8  O    0.000202
     9  O    0.000206
    10  C    0.000321
    11  O    0.000000
    12  C    0.640295
    13  O    7.511354
 Mulliken charges:
               1
     1  Cr  -0.535354
     2  C    0.247236
     3  C    0.247231
     4  O   -0.158047
     5  O   -0.157992
     6  C    0.247245
     7  C    0.247236
     8  O   -0.157989
     9  O   -0.158026
    10  C    0.247252
    11  O   -0.158034
    12  C    0.247273
    13  O   -0.158030
 Sum of Mulliken charges =   0.00000
 Mulliken charges with hydrogens summed into heavy atoms:
               1
     1  Cr  -0.535354
     2  C    0.247236
     3  C    0.247231
     4  O   -0.158047
     5  O   -0.157992
     6  C    0.247245
     7  C    0.247236
     8  O   -0.157989
     9  O   -0.158026
    10  C    0.247252
    11  O   -0.158034
    12  C    0.247273
    13  O   -0.158030
 Electronic spatial extent (au):  <R**2>=           2257.4473
 Charge=              0.0000 electrons
 Dipole moment (field-independent basis, Debye):
    X=             -0.0008    Y=             -0.0005    Z=             -0.0013  Tot=              0.0016
 Quadrupole moment (field-independent basis, Debye-Ang):
   XX=            -83.8691   YY=            -83.8576   ZZ=            -83.8198
   XY=             -0.0002   XZ=             -0.0008   YZ=              0.0001
 Traceless Quadrupole moment (field-independent basis, Debye-Ang):
   XX=             -0.0203   YY=             -0.0088   ZZ=              0.0290
   XY=             -0.0002   XZ=             -0.0008   YZ=              0.0001
 Octapole moment (field-independent basis, Debye-Ang**2):
  XXX=             -0.0469  YYY=             -0.0154  ZZZ=             -0.0187  XYY=              0.0314
  XXY=             -0.0135  XXZ=              0.0092  XZZ=              0.0098  YZZ=              0.0221
  YYZ=             -0.0048  XYZ=             -0.0083
 Hexadecapole moment (field-independent basis, Debye-Ang**3):
 XXXX=           -939.8489 YYYY=           -955.0526 ZZZZ=           -914.1391 XXXY=             -1.5007
 XXXZ=             -4.1708 YYYX=              2.1340 YYYZ=            -37.9783 ZZZX=             -0.9740
 ZZZY=              8.9368 XXYY=           -306.1954 XXZZ=           -342.8165 YYZZ=           -326.1892
 XXYZ=             29.0446 YYXZ=              5.1337 ZZXY=             -0.6299
 N-N= 7.986768072119D+02 E-N=-3.380734711877D+03  KE= 7.162414051848D+02
 No NMR shielding tensors so no spin-rotation constants.
 Leave Link  601 at Fri Dec 10 11:30:21 2021, MaxMem=  2147483648 cpu:         1.5
 (Enter /ddn/data/hamilton6/apps/gaussian/g09D.01/g09/l701.exe)
 Compute integral first derivatives.
 ... and contract with generalized density number  0.
   1 Symmetry operations used in ECPInt.
 ECPInt:  NShTT=    3240 NPrTT=   19782 LenC2=    3166 LenP2D=   13236.
 LDataN:  DoStor=T MaxTD1= 5 Len=  102
 Leave Link  701 at Fri Dec 10 11:30:21 2021, MaxMem=  2147483648 cpu:         2.3
 (Enter /ddn/data/hamilton6/apps/gaussian/g09D.01/g09/l702.exe)
 L702 exits ... SP integral derivatives will be done elsewhere.
 Leave Link  702 at Fri Dec 10 11:30:21 2021, MaxMem=  2147483648 cpu:         0.5
 (Enter /ddn/data/hamilton6/apps/gaussian/g09D.01/g09/l703.exe)
 Compute integral first derivatives, UseDBF=F ICtDFT=           0.
 Integral derivatives from FoFJK, PRISM(SPDF).
 Calling FoFJK, ICntrl=      2127 FMM=F ISym2X=0 I1Cent= 0 IOpClX= 0 NMat=1 NMatS=1 NMatT=0.
 FoFJK:  IHMeth= 1 ICntrl=    2127 DoSepK=F KAlg= 0 I1Cent=   0 FoldK=F
 IRaf=         0 NMat=   1 IRICut=       1 DoRegI=T DoRafI=F ISym2E= 0.
 FoFCou: FMM=F IPFlag=           0 FMFlag=      100000 FMFlg1=         800
         NFxFlg=           0 DoJE=F BraDBF=F KetDBF=F FulRan=T
         wScrn=  0.000000 ICntrl=    2127 IOpCl=  0 I1Cent=           0 NGrid=           0
         NMat0=    1 NMatS0=      1 NMatT0=    0 NMatD0=    1 NMtDS0=    0 NMtDT0=    0
 Symmetry not used in FoFCou.
 Leave Link  703 at Fri Dec 10 11:30:24 2021, MaxMem=  2147483648 cpu:        22.5
 (Enter /ddn/data/hamilton6/apps/gaussian/g09D.01/g09/l716.exe)
 Dipole        =-3.32111893D-04-2.05901063D-04-5.07632092D-04
 ***** Axes restored to original set *****
 -------------------------------------------------------------------
 Center     Atomic                   Forces (Hartrees/Bohr)
 Number     Number              X              Y              Z
 -------------------------------------------------------------------
      1       24          -0.000010188   -0.000004102    0.000011900
      2        6          -0.000518633    0.002886676    0.000394565
      3        6           0.000520440   -0.003019533   -0.000401434
      4        8          -0.000173166    0.001011193    0.000169895
      5        8           0.000160135   -0.000888816   -0.000141288
      6        6           0.002988134    0.000383767    0.000577537
      7        6          -0.002915710   -0.000374539   -0.000605497
      8        8           0.000927411    0.000162427    0.000142886
      9        8          -0.000997607   -0.000173694   -0.000185504
     10        6          -0.000386465   -0.000528550    0.003013542
     11        8           0.000180747    0.000175285   -0.001018610
     12        6           0.000407952    0.000532053   -0.002980955
     13        8          -0.000183050   -0.000162167    0.001022963
 -------------------------------------------------------------------
 Cartesian Forces:  Max     0.003019533 RMS     0.001257410
 Leave Link  716 at Fri Dec 10 11:30:24 2021, MaxMem=  2147483648 cpu:         0.3
 (Enter /ddn/data/hamilton6/apps/gaussian/g09D.01/g09/l103.exe)

 GradGradGradGradGradGradGradGradGradGradGradGradGradGradGradGradGradGrad
 Berny optimization.
 FormGI is forming the generalized inverse of G from B-inverse, IUseBI=4.
 Internal  Forces:  Max     0.002049892 RMS     0.000789543
 Search for a local minimum.
 Step number   1 out of a maximum of   60
 All quantities printed in internal units (Hartrees-Bohrs-Radians)
 RMS Force = .78954D-03 SwitMx=.10000D-02 MixMth= 2
 Mixed Optimization -- En-DIIS/RFO-DIIS
 Second derivative matrix not updated -- first step.
 ITU=  0
     Eigenvalues ---    0.04966   0.04966   0.04966   0.04966   0.04966
     Eigenvalues ---    0.04966   0.04967   0.04967   0.04967   0.04967
     Eigenvalues ---    0.04967   0.04967   0.09049   0.09049   0.10821
     Eigenvalues ---    0.14361   0.14365   0.14367   0.14369   0.17955
     Eigenvalues ---    0.17959   0.17960   0.17961   0.17963   0.17963
     Eigenvalues ---    0.25000   0.25000   1.32862   1.32867   1.32868
     Eigenvalues ---    1.32872   1.32895   1.32909
 RFO step:  Lambda=-1.44327687D-04 EMin= 4.96634722D-02
 Linear search not attempted -- first point.
 Iteration  1 RMS(Cart)=  0.00557844 RMS(Int)=  0.00000146
 Iteration  2 RMS(Cart)=  0.00000211 RMS(Int)=  0.00000007
 Iteration  3 RMS(Cart)=  0.00000000 RMS(Int)=  0.00000007
 ITry= 1 IFail=0 DXMaxC= 1.14D-02 DCOld= 1.00D+10 DXMaxT= 3.00D-01 DXLimC= 3.00D+00 Rises=F
 Variable       Old X    -DE/DX   Delta X   Delta X   Delta X     New X
                                 (Linear)    (Quad)   (Total)
    R1        3.60184   0.00204   0.00000   0.01138   0.01138   3.61322
    R2        3.60173   0.00205   0.00000   0.01140   0.01140   3.61313
    R3        3.60190   0.00204   0.00000   0.01134   0.01134   3.61323
    R4        3.60183   0.00205   0.00000   0.01139   0.01139   3.61321
    R5        3.60172   0.00203   0.00000   0.01132   0.01132   3.61304
    R6        3.60204   0.00200   0.00000   0.01115   0.01115   3.61320
    R7        2.17769  -0.00091   0.00000  -0.00069  -0.00069   2.17701
    R8        2.17781  -0.00104   0.00000  -0.00078  -0.00078   2.17703
    R9        2.17780  -0.00103   0.00000  -0.00077  -0.00077   2.17702
   R10        2.17773  -0.00095   0.00000  -0.00072  -0.00072   2.17702
   R11        2.17782  -0.00105   0.00000  -0.00079  -0.00079   2.17703
   R12        2.17781  -0.00105   0.00000  -0.00079  -0.00079   2.17701
    A1        1.56975   0.00003   0.00000   0.00033   0.00033   1.57008
    A2        1.57143  -0.00003   0.00000  -0.00024  -0.00024   1.57118
    A3        1.57065   0.00006   0.00000   0.00018   0.00018   1.57083
    A4        1.57152  -0.00009   0.00000  -0.00035  -0.00035   1.57117
    A5        1.57173  -0.00003   0.00000  -0.00031  -0.00031   1.57142
    A6        1.57028   0.00002   0.00000   0.00022   0.00022   1.57050
    A7        1.57185  -0.00009   0.00000  -0.00037  -0.00037   1.57148
    A8        1.56916   0.00012   0.00000   0.00054   0.00054   1.56971
    A9        1.57174  -0.00014   0.00000  -0.00049  -0.00049   1.57124
   A10        1.57026   0.00012   0.00000   0.00032   0.00032   1.57059
   A11        1.56820   0.00022   0.00000   0.00105   0.00105   1.56924
   A12        1.57299  -0.00020   0.00000  -0.00088  -0.00088   1.57211
   A13        3.14148   0.00000   0.00000   0.00002   0.00002   3.14150
   A14        3.14118   0.00001   0.00000   0.00008   0.00008   3.14126
   A15        3.14217  -0.00002   0.00000  -0.00017  -0.00017   3.14200
   A16        3.14156  -0.00001   0.00000  -0.00028  -0.00028   3.14128
   A17        3.14065   0.00003   0.00000   0.00051   0.00051   3.14117
   A18        3.14023   0.00006   0.00000   0.00124   0.00124   3.14146
   A19        3.13998   0.00001   0.00000   0.00022   0.00022   3.14020
   A20        3.13991   0.00009   0.00000   0.00179   0.00179   3.14170
   A21        3.14059   0.00005   0.00000   0.00105   0.00105   3.14164
   A22        3.14250  -0.00003   0.00000  -0.00019  -0.00019   3.14231
   A23        3.14325  -0.00008   0.00000  -0.00055  -0.00055   3.14270
   A24        3.14200  -0.00002   0.00000  -0.00017  -0.00017   3.14183
   A25        3.14185  -0.00001   0.00000  -0.00016  -0.00016   3.14168
   A26        3.14176   0.00000   0.00000  -0.00007  -0.00007   3.14168
   A27        3.14131   0.00004   0.00000   0.00081   0.00081   3.14212
   A28        3.14274  -0.00004   0.00000  -0.00086  -0.00086   3.14188
   A29        3.14195  -0.00002   0.00000  -0.00043  -0.00043   3.14152
   A30        3.14319  -0.00008   0.00000  -0.00154  -0.00154   3.14165
    D1       -1.56975  -0.00003   0.00000  -0.00033  -0.00033  -1.57008
    D2        1.56975   0.00003   0.00000   0.00033   0.00033   1.57008
    D3        1.57143  -0.00003   0.00000  -0.00024  -0.00024   1.57118
    D4       -1.57143   0.00003   0.00000   0.00024   0.00024  -1.57118
    D5        1.57173  -0.00003   0.00000  -0.00031  -0.00031   1.57143
    D6       -1.57173   0.00003   0.00000   0.00031   0.00031  -1.57142
    D7       -1.57028  -0.00003   0.00000  -0.00022  -0.00022  -1.57050
    D8        1.57027   0.00003   0.00000   0.00022   0.00022   1.57050
         Item               Value     Threshold  Converged?
 Maximum Force            0.002050     0.000450     NO 
 RMS     Force            0.000790     0.000300     NO 
 Maximum Displacement     0.011397     0.001800     NO 
 RMS     Displacement     0.005578     0.001200     NO 
 Predicted change in Energy=-7.222071D-05
 Lowest energy point so far.  Saving SCF results.
 GradGradGradGradGradGradGradGradGradGradGradGradGradGradGradGradGradGrad

 Leave Link  103 at Fri Dec 10 11:30:24 2021, MaxMem=  2147483648 cpu:         0.1
 (Enter /ddn/data/hamilton6/apps/gaussian/g09D.01/g09/l202.exe)
                          Input orientation:                          
 ---------------------------------------------------------------------
 Center     Atomic      Atomic             Coordinates (Angstroms)
 Number     Number       Type             X           Y           Z
 ---------------------------------------------------------------------
      1         24           0       -0.949806    0.238916   -0.037960
      2          6           0       -1.252562    2.105981    0.241812
      3          6           0       -0.646699   -1.627853   -0.319030
      4          8           0       -0.464086   -2.752568   -0.488879
      5          8           0       -1.434642    3.230942    0.410521
      6          6           0        0.919577    0.497394    0.269440
      7          6           0       -2.819568   -0.019298   -0.343200
      8          8           0       -3.946301   -0.175424   -0.525583
      9          8           0        2.045952    0.653364    0.454174
     10          6           0       -1.212966   -0.083442    1.828142
     11          8           0       -1.371400   -0.277727    2.952570
     12          6           0       -0.686951    0.560470   -1.904330
     13          8           0       -0.528533    0.754275   -3.028834
 ---------------------------------------------------------------------
                    Distance matrix (angstroms):
                    1          2          3          4          5
     1  Cr   0.000000
     2  C    1.912033   0.000000
     3  C    1.911988   3.824020   0.000000
     4  O    3.064021   4.976053   1.152033   0.000000
     5  O    3.064054   1.152021   4.976041   6.128074   0.000000
     6  C    1.912040   2.703055   2.704846   3.612731   3.610338
     7  C    1.912029   2.704544   2.703588   3.611132   3.612504
     8  O    3.064056   3.612469   3.611037   4.332302   4.334519
     9  O    3.064070   3.610456   3.612777   4.334744   4.331322
    10  C    1.911938   2.703994   2.704849   3.612982   3.611639
    11  O    3.063973   3.611703   3.612672   4.334931   4.333217
    12  C    1.912021   2.704523   2.702508   3.609625   3.612340
    13  O    3.064048   3.612264   3.609921   4.330528   4.334061
                    6          7          8          9         10
     6  C    0.000000
     7  C    3.824069   0.000000
     8  O    4.976095   1.152027   0.000000
     9  O    1.152030   4.976099   6.128124   0.000000
    10  C    2.704564   2.701853   3.608268   3.612647   0.000000
    11  O    3.612282   3.609165   4.328756   4.334421   1.152036
    12  C    2.703736   2.705792   3.614671   3.611085   3.823959
    13  O    3.611318   3.613846   4.337251   4.332378   4.975985
                   11         12         13
    11  O    0.000000
    12  C    4.975995   0.000000
    13  O    6.128021   1.152027   0.000000
 Stoichiometry    C6CrO6
 Framework group  C1[X(C6CrO6)]
 Deg. of freedom    33
 Full point group                 C1      NOp   1
 RotChk:  IX=0 Diff= 1.32D-01
 Largest Abelian subgroup         C1      NOp   1
 Largest concise Abelian subgroup C1      NOp   1
                         Standard orientation:                         
 ---------------------------------------------------------------------
 Center     Atomic      Atomic             Coordinates (Angstroms)
 Number     Number       Type             X           Y           Z
 ---------------------------------------------------------------------
      1         24           0       -0.000130    0.000032   -0.000114
      2          6           0       -0.066683   -1.685143   -0.901016
      3          6           0        0.065353    1.685607    0.900023
      4          8           0        0.104531    2.701424    1.442020
      5          8           0       -0.106976   -2.700620   -1.443545
      6          6           0       -1.379560   -0.582657    1.188813
      7          6           0        1.380733    0.581392   -1.188008
      8          8           0        2.213844    0.931339   -1.902592
      9          8           0       -2.211044   -0.933682    1.904766
     10          6           0        1.322828   -0.690961    1.194800
     11          8           0        2.119887   -1.107296    1.914903
     12          6           0       -1.322793    0.691874   -1.194994
     13          8           0       -2.119763    1.108655   -1.914924
 ---------------------------------------------------------------------
 Rotational constants (GHZ):      0.6515168      0.6512934      0.6506256
 Leave Link  202 at Fri Dec 10 11:30:24 2021, MaxMem=  2147483648 cpu:         0.0
 (Enter /ddn/data/hamilton6/apps/gaussian/g09D.01/g09/l301.exe)
 Basis read from rwf:  (6D, 7F)
 Pseudo-potential data read from rwf file.
 There are   204 symmetry adapted cartesian basis functions of A   symmetry.
 There are   204 symmetry adapted basis functions of A   symmetry.
   204 basis functions,   412 primitive gaussians,   204 cartesian basis functions
    49 alpha electrons       49 beta electrons
       nuclear repulsion energy       797.1142062647 Hartrees.
 IExCor=  402 DFT=T Ex+Corr=B3LYP ExCW=0 ScaHFX=  0.200000
 ScaDFX=  0.800000  0.720000  1.000000  0.810000 ScalE2=  1.000000  1.000000
 IRadAn=      0 IRanWt=     -1 IRanGd=            0 ICorTp=0 IEmpDi=  4
 NAtoms=   13 NActive=   13 NUniq=   13 SFac= 1.00D+00 NAtFMM=   60 NAOKFM=F Big=F
 Integral buffers will be    131072 words long.
 Raffenetti 2 integral format.
 Two-electron integral symmetry is turned on.
 No density basis found on file   724.
 Leave Link  301 at Fri Dec 10 11:30:24 2021, MaxMem=  2147483648 cpu:         0.5
 (Enter /ddn/data/hamilton6/apps/gaussian/g09D.01/g09/l302.exe)
 NPDir=0 NMtPBC=     1 NCelOv=     1 NCel=       1 NClECP=     1 NCelD=      1
         NCelK=      1 NCelE2=     1 NClLst=     1 CellRange=     0.0.
 One-electron integrals computed using PRISM.
   1 Symmetry operations used in ECPInt.
 ECPInt:  NShTT=    3240 NPrTT=   19782 LenC2=    3166 LenP2D=   13222.
 LDataN:  DoStor=T MaxTD1= 4 Len=   56
 NBasis=   204 RedAO= T EigKep=  1.47D-03  NBF=   204
 NBsUse=   204 1.00D-06 EigRej= -1.00D+00 NBFU=   204
 Precomputing XC quadrature grid using
 IXCGrd= 4 IRadAn=           0 IRanWt=          -1 IRanGd=           0 AccXCQ= 0.00D+00.
 Generated NRdTot=       0 NPtTot=           0 NUsed=           0 NTot=          32
 NSgBfM=   204   204   204   204   204 MxSgAt=    13 MxSgA2=    13.
 Leave Link  302 at Fri Dec 10 11:30:25 2021, MaxMem=  2147483648 cpu:         2.0
 (Enter /ddn/data/hamilton6/apps/gaussian/g09D.01/g09/l303.exe)
 DipDrv:  MaxL=1.
 Leave Link  303 at Fri Dec 10 11:30:25 2021, MaxMem=  2147483648 cpu:         0.3
 (Enter /ddn/data/hamilton6/apps/gaussian/g09D.01/g09/l401.exe)
 Initial guess from the checkpoint file:  "go.chk"
 B after Tr=     0.000000    0.000000    0.000000
         Rot=    0.998917    0.005258   -0.000969    0.046222 Ang=   5.33 deg.
 Guess basis will be translated and rotated to current coordinates.
 JPrj=2 DoOrth=T DoCkMO=T.
 Leave Link  401 at Fri Dec 10 11:30:25 2021, MaxMem=  2147483648 cpu:         1.2
 (Enter /ddn/data/hamilton6/apps/gaussian/g09D.01/g09/l502.exe)
 Closed shell SCF:
 Using DIIS extrapolation, IDIIS=  1040.
 Integral symmetry usage will be decided dynamically.
 Keep R1 ints in memory in canonical form, NReq=223078529.
 IVT=      146564 IEndB=      146564 NGot=  2147483648 MDV=  1928712580
 LenX=  1928712580 LenY=  1928670523
 Requested convergence on RMS density matrix=1.00D-08 within 128 cycles.
 Requested convergence on MAX density matrix=1.00D-06.
 Requested convergence on             energy=1.00D-06.
 No special actions if energy rises.
 FoFCou: FMM=F IPFlag=           0 FMFlag=           0 FMFlg1=           0
         NFxFlg=           0 DoJE=F BraDBF=F KetDBF=F FulRan=T
         wScrn=  0.000000 ICntrl=     600 IOpCl=  0 I1Cent=           0 NGrid=           0
         NMat0=    1 NMatS0=  20910 NMatT0=    0 NMatD0=    1 NMtDS0=    0 NMtDT0=    0
 Symmetry not used in FoFCou.

 Cycle   1  Pass 1  IDiag  1:
 E= -766.496050063881    
 DIIS: error= 2.16D-03 at cycle   1 NSaved=   1.
 NSaved= 1 IEnMin= 1 EnMin= -766.496050063881     IErMin= 1 ErrMin= 2.16D-03
 ErrMax= 2.16D-03  0.00D+00 EMaxC= 1.00D-01 BMatC= 1.33D-04 BMatP= 1.33D-04
 IDIUse=3 WtCom= 9.78D-01 WtEn= 2.16D-02
 Coeff-Com:  0.100D+01
 Coeff-En:   0.100D+01
 Coeff:      0.100D+01
 Gap=     1.472 Goal=   None    Shift=    0.000
 GapD=    1.472 DampG=2.000 DampE=1.000 DampFc=2.0000 IDamp=-1.
 RMSDP=7.74D-05 MaxDP=1.86D-03              OVMax= 2.85D-03

 Cycle   2  Pass 1  IDiag  1:
 E= -766.496028178816     Delta-E=        0.000021885065 Rises=F Damp=F
 DIIS: error= 1.18D-03 at cycle   2 NSaved=   2.
 NSaved= 2 IEnMin= 1 EnMin= -766.496050063881     IErMin= 2 ErrMin= 1.18D-03
 ErrMax= 1.18D-03  0.00D+00 EMaxC= 1.00D-01 BMatC= 9.99D-05 BMatP= 1.33D-04
 IDIUse=3 WtCom= 9.88D-01 WtEn= 1.18D-02
 Coeff-Com:  0.441D+00 0.559D+00
 Coeff-En:   0.640D+00 0.360D+00
 Coeff:      0.444D+00 0.556D+00
 Gap=     0.206 Goal=   None    Shift=    0.000
 RMSDP=1.32D-04 MaxDP=7.66D-03 DE= 2.19D-05 OVMax= 9.17D-03

 Cycle   3  Pass 1  IDiag  1:
 E= -766.495349757763     Delta-E=        0.000678421053 Rises=F Damp=F
 DIIS: error= 3.84D-03 at cycle   3 NSaved=   3.
 NSaved= 3 IEnMin= 1 EnMin= -766.496050063881     IErMin= 2 ErrMin= 1.18D-03
 ErrMax= 3.84D-03  0.00D+00 EMaxC= 1.00D-01 BMatC= 1.09D-03 BMatP= 9.99D-05
 IDIUse=3 WtCom= 1.39D-01 WtEn= 8.61D-01
 Coeff-Com:  0.355D-02 0.766D+00 0.230D+00
 Coeff-En:   0.000D+00 0.805D+00 0.195D+00
 Coeff:      0.493D-03 0.800D+00 0.200D+00
 Gap=     0.205 Goal=   None    Shift=    0.000
 RMSDP=7.32D-05 MaxDP=4.23D-03 DE= 6.78D-04 OVMax= 4.92D-03

 Cycle   4  Pass 1  IDiag  1:
 E= -766.496034514848     Delta-E=       -0.000684757085 Rises=F Damp=F
 DIIS: error= 1.09D-03 at cycle   4 NSaved=   4.
 NSaved= 4 IEnMin= 1 EnMin= -766.496050063881     IErMin= 4 ErrMin= 1.09D-03
 ErrMax= 1.09D-03  0.00D+00 EMaxC= 1.00D-01 BMatC= 9.51D-05 BMatP= 9.99D-05
 IDIUse=3 WtCom= 9.89D-01 WtEn= 1.09D-02
 Coeff-Com: -0.692D-02 0.583D+00 0.757D-01 0.348D+00
 Coeff-En:   0.000D+00 0.486D+00 0.000D+00 0.514D+00
 Coeff:     -0.685D-02 0.582D+00 0.749D-01 0.350D+00
 Gap=     0.205 Goal=   None    Shift=    0.000
 RMSDP=2.70D-05 MaxDP=1.36D-03 DE=-6.85D-04 OVMax= 1.72D-03

 Cycle   5  Pass 1  IDiag  1:
 E= -766.496100146749     Delta-E=       -0.000065631900 Rises=F Damp=F
 DIIS: error= 7.37D-05 at cycle   5 NSaved=   5.
 NSaved= 5 IEnMin= 5 EnMin= -766.496100146749     IErMin= 5 ErrMin= 7.37D-05
 ErrMax= 7.37D-05  0.00D+00 EMaxC= 1.00D-01 BMatC= 4.76D-07 BMatP= 9.51D-05
 IDIUse=1 WtCom= 1.00D+00 WtEn= 0.00D+00
 Coeff-Com: -0.166D-02 0.241D-01-0.352D-01 0.842D-01 0.929D+00
 Coeff:     -0.166D-02 0.241D-01-0.352D-01 0.842D-01 0.929D+00
 Gap=     0.205 Goal=   None    Shift=    0.000
 RMSDP=2.26D-06 MaxDP=7.91D-05 DE=-6.56D-05 OVMax= 1.37D-04

 Cycle   6  Pass 1  IDiag  1:
 E= -766.496100483971     Delta-E=       -0.000000337222 Rises=F Damp=F
 DIIS: error= 1.00D-05 at cycle   6 NSaved=   6.
 NSaved= 6 IEnMin= 6 EnMin= -766.496100483971     IErMin= 6 ErrMin= 1.00D-05
 ErrMax= 1.00D-05  0.00D+00 EMaxC= 1.00D-01 BMatC= 1.09D-08 BMatP= 4.76D-07
 IDIUse=1 WtCom= 1.00D+00 WtEn= 0.00D+00
 Coeff-Com:  0.152D-03-0.355D-01-0.167D-01 0.624D-03 0.167D+00 0.885D+00
 Coeff:      0.152D-03-0.355D-01-0.167D-01 0.624D-03 0.167D+00 0.885D+00
 Gap=     0.205 Goal=   None    Shift=    0.000
 RMSDP=5.42D-07 MaxDP=1.53D-05 DE=-3.37D-07 OVMax= 3.31D-05

 Cycle   7  Pass 1  IDiag  1:
 E= -766.496100491996     Delta-E=       -0.000000008025 Rises=F Damp=F
 DIIS: error= 2.37D-06 at cycle   7 NSaved=   7.
 NSaved= 7 IEnMin= 7 EnMin= -766.496100491996     IErMin= 7 ErrMin= 2.37D-06
 ErrMax= 2.37D-06  0.00D+00 EMaxC= 1.00D-01 BMatC= 9.30D-10 BMatP= 1.09D-08
 IDIUse=1 WtCom= 1.00D+00 WtEn= 0.00D+00
 Coeff-Com:  0.132D-03-0.192D-01-0.744D-02-0.342D-02 0.506D-01 0.454D+00
 Coeff-Com:  0.525D+00
 Coeff:      0.132D-03-0.192D-01-0.744D-02-0.342D-02 0.506D-01 0.454D+00
 Coeff:      0.525D+00
 Gap=     0.205 Goal=   None    Shift=    0.000
 RMSDP=1.76D-07 MaxDP=3.14D-06 DE=-8.02D-09 OVMax= 1.16D-05

 Cycle   8  Pass 1  IDiag  1:
 E= -766.496100492735     Delta-E=       -0.000000000739 Rises=F Damp=F
 DIIS: error= 9.42D-07 at cycle   8 NSaved=   8.
 NSaved= 8 IEnMin= 8 EnMin= -766.496100492735     IErMin= 8 ErrMin= 9.42D-07
 ErrMax= 9.42D-07  0.00D+00 EMaxC= 1.00D-01 BMatC= 1.63D-10 BMatP= 9.30D-10
 IDIUse=1 WtCom= 1.00D+00 WtEn= 0.00D+00
 Coeff-Com:  0.530D-04-0.569D-02-0.175D-02-0.252D-02 0.173D-02 0.126D+00
 Coeff-Com:  0.323D+00 0.559D+00
 Coeff:      0.530D-04-0.569D-02-0.175D-02-0.252D-02 0.173D-02 0.126D+00
 Coeff:      0.323D+00 0.559D+00
 Gap=     0.205 Goal=   None    Shift=    0.000
 RMSDP=6.25D-08 MaxDP=1.60D-06 DE=-7.39D-10 OVMax= 3.78D-06

 Cycle   9  Pass 1  IDiag  1:
 E= -766.496100492934     Delta-E=       -0.000000000199 Rises=F Damp=F
 DIIS: error= 1.76D-07 at cycle   9 NSaved=   9.
 NSaved= 9 IEnMin= 9 EnMin= -766.496100492934     IErMin= 9 ErrMin= 1.76D-07
 ErrMax= 1.76D-07  0.00D+00 EMaxC= 1.00D-01 BMatC= 8.91D-12 BMatP= 1.63D-10
 IDIUse=1 WtCom= 1.00D+00 WtEn= 0.00D+00
 Coeff-Com:  0.119D-04-0.543D-03-0.326D-04-0.802D-03-0.530D-02 0.117D-01
 Coeff-Com:  0.100D+00 0.275D+00 0.620D+00
 Coeff:      0.119D-04-0.543D-03-0.326D-04-0.802D-03-0.530D-02 0.117D-01
 Coeff:      0.100D+00 0.275D+00 0.620D+00
 Gap=     0.205 Goal=   None    Shift=    0.000
 RMSDP=1.77D-08 MaxDP=5.91D-07 DE=-1.99D-10 OVMax= 1.12D-06

 Cycle  10  Pass 1  IDiag  1:
 E= -766.496100492915     Delta-E=        0.000000000019 Rises=F Damp=F
 DIIS: error= 1.03D-07 at cycle  10 NSaved=  10.
 NSaved=10 IEnMin= 9 EnMin= -766.496100492934     IErMin=10 ErrMin= 1.03D-07
 ErrMax= 1.03D-07  0.00D+00 EMaxC= 1.00D-01 BMatC= 3.77D-12 BMatP= 8.91D-12
 IDIUse=1 WtCom= 1.00D+00 WtEn= 0.00D+00
 Coeff-Com: -0.260D-05 0.888D-03 0.368D-03-0.116D-04-0.451D-02-0.194D-01
 Coeff-Com:  0.372D-02 0.831D-01 0.467D+00 0.469D+00
 Coeff:     -0.260D-05 0.888D-03 0.368D-03-0.116D-04-0.451D-02-0.194D-01
 Coeff:      0.372D-02 0.831D-01 0.467D+00 0.469D+00
 Gap=     0.205 Goal=   None    Shift=    0.000
 RMSDP=9.60D-09 MaxDP=3.14D-07 DE= 1.89D-11 OVMax= 7.00D-07

 SCF Done:  E(RB3LYP) =  -766.496100493     A.U. after   10 cycles
            NFock= 10  Conv=0.96D-08     -V/T= 2.0702
 KE= 7.162232300975D+02 PE=-3.377618180472D+03 EE= 1.097784643617D+03
[...]
     26  0.422257D-01
     27  0.244711D-01  0.507287D-01
     28  0.120552D-02 -0.327444D-02  0.127549D+00
     29 -0.536485D-03 -0.507892D-03  0.252151D-01  0.137966D+00
     30 -0.255379D-02 -0.128028D-02 -0.145993D+00 -0.179509D+00  0.114618D+01
     31 -0.423676D-03  0.360276D-03 -0.632950D-01 -0.245174D-01  0.141837D+00
     32 -0.142740D-03 -0.142448D-03 -0.245169D-01 -0.735028D-01  0.174388D+00
     33  0.161834D-02  0.151003D-02  0.141837D+00  0.174396D+00 -0.105324D+01
     34 -0.621849D-03  0.297289D-02  0.197951D-01 -0.169036D-02  0.975471D-02
     35 -0.145841D-02 -0.440546D-03 -0.168904D-02  0.190895D-01  0.119878D-01
     36  0.160597D-02  0.504879D-02  0.975614D-02  0.119990D-01 -0.482335D-01
     37  0.233274D-03 -0.388661D-03 -0.709453D-02  0.616701D-03 -0.355744D-02
     38  0.423235D-03  0.317984D-03  0.615479D-03 -0.683782D-02 -0.436987D-02
     39 -0.144288D-02 -0.237648D-02 -0.355501D-02 -0.437421D-02  0.176926D-01
               31            32            33            34            35 
     31  0.427100D-01
     32  0.260325D-01  0.535527D-01
     33 -0.150631D+00 -0.185192D+00  0.109397D+01
     34 -0.709518D-02  0.615320D-03 -0.355266D-02  0.127566D+00
     35  0.615385D-03 -0.683847D-02 -0.436805D-02  0.252158D-01  0.137926D+00
     36 -0.355503D-02 -0.437189D-02  0.176937D-01 -0.146193D+00 -0.179337D+00
     37  0.220984D-02 -0.303208D-03  0.175095D-02 -0.633383D-01 -0.245219D-01
     38 -0.302793D-03  0.208378D-02  0.215090D-02 -0.245210D-01 -0.734401D-01
     39  0.175052D-02  0.215332D-02 -0.999825D-02  0.142015D+00  0.174215D+00
               36            37            38            39 
     36  0.114620D+01
     37  0.142024D+00  0.427562D-01
     38  0.174214D+00  0.260349D-01  0.534835D-01
     39 -0.105328D+01 -0.150810D+00 -0.184999D+00  0.109401D+01
 FormGI is forming the generalized inverse of G from B-inverse, IUseBI=4.
 Leave Link  716 at Fri Dec 10 11:32:12 2021, MaxMem=  2147483648 cpu:         0.3
 (Enter /ddn/data/hamilton6/apps/gaussian/g09D.01/g09/l103.exe)

 GradGradGradGradGradGradGradGradGradGradGradGradGradGradGradGradGradGrad
 Berny optimization.
 Red2BG is reusing G-inverse.
 Internal  Forces:  Max     0.000038819 RMS     0.000017233
 Search for a local minimum.
 Step number   1 out of a maximum of    2
 All quantities printed in internal units (Hartrees-Bohrs-Radians)
 Second derivative matrix not updated -- analytic derivatives used.
 ITU=  0
     Eigenvalues ---    0.02447   0.02483   0.03418   0.03627   0.04564
     Eigenvalues ---    0.04579   0.04914   0.06228   0.06370   0.06877
     Eigenvalues ---    0.07079   0.07279   0.08602   0.10862   0.10952
     Eigenvalues ---    0.11104   0.11582   0.11808   0.12367   0.14224
     Eigenvalues ---    0.14356   0.15243   0.15685   0.15906   0.16220
     Eigenvalues ---    0.16229   0.16251   1.13648   1.13665   1.13916
     Eigenvalues ---    1.13941   1.13942   1.20502
 Angle between quadratic step and forces=  37.53 degrees.
 Linear search not attempted -- first point.
 Iteration  1 RMS(Cart)=  0.00081758 RMS(Int)=  0.00000016
 Iteration  2 RMS(Cart)=  0.00000020 RMS(Int)=  0.00000003
 ITry= 1 IFail=0 DXMaxC= 2.73D-03 DCOld= 1.00D+10 DXMaxT= 3.00D-01 DXLimC= 3.00D+00 Rises=F
 Variable       Old X    -DE/DX   Delta X   Delta X   Delta X     New X
                                 (Linear)    (Quad)   (Total)
    R1        3.61463  -0.00001   0.00000  -0.00007  -0.00007   3.61456
    R2        3.61460  -0.00001   0.00000  -0.00004  -0.00004   3.61456
    R3        3.61463  -0.00003   0.00000  -0.00021  -0.00021   3.61441
    R4        3.61462  -0.00003   0.00000  -0.00020  -0.00020   3.61441
    R5        3.61457  -0.00001   0.00000  -0.00006  -0.00006   3.61451
    R6        3.61461  -0.00001   0.00000  -0.00010  -0.00010   3.61451
    R7        2.17675   0.00002   0.00000   0.00001   0.00001   2.17676
    R8        2.17675   0.00002   0.00000   0.00001   0.00001   2.17676
    R9        2.17675   0.00002   0.00000   0.00002   0.00002   2.17677
   R10        2.17675   0.00002   0.00000   0.00002   0.00002   2.17677
   R11        2.17675   0.00001   0.00000   0.00001   0.00001   2.17676
   R12        2.17675   0.00002   0.00000   0.00002   0.00002   2.17676
    A1        1.57044   0.00001   0.00000   0.00046   0.00046   1.57090
    A2        1.57097  -0.00001   0.00000  -0.00027  -0.00027   1.57070
    A3        1.57095   0.00001   0.00000  -0.00012  -0.00012   1.57083
    A4        1.57085  -0.00002   0.00000  -0.00009  -0.00009   1.57076
    A5        1.57108  -0.00001   0.00000  -0.00039  -0.00039   1.57070
    A6        1.57069   0.00001   0.00000   0.00020   0.00020   1.57090
    A7        1.57105  -0.00002   0.00000  -0.00029  -0.00029   1.57076
    A8        1.57033   0.00004   0.00000   0.00050   0.00050   1.57083
    A9        1.57091  -0.00002   0.00000  -0.00003  -0.00003   1.57088
   A10        1.57081   0.00001   0.00000  -0.00009  -0.00009   1.57072
   A11        1.57020   0.00004   0.00000   0.00052   0.00052   1.57072
   A12        1.57127  -0.00002   0.00000  -0.00039  -0.00039   1.57088
   A13        3.14152   0.00000   0.00000   0.00007   0.00007   3.14159
   A14        3.14141   0.00000   0.00000   0.00018   0.00018   3.14159
   A15        3.14180  -0.00001   0.00000  -0.00021  -0.00021   3.14159
   A16        3.14152  -0.00002   0.00000  -0.00003  -0.00003   3.14149
   A17        3.14135   0.00001   0.00000   0.00035   0.00035   3.14170
   A18        3.14121   0.00002   0.00000   0.00044   0.00044   3.14165
   A19        3.14109   0.00002   0.00000   0.00045   0.00045   3.14153
   A20        3.14165  -0.00001   0.00000   0.00004   0.00004   3.14169
   A21        3.14149  -0.00002   0.00000  -0.00002  -0.00002   3.14147
   A22        3.14200  -0.00002   0.00000  -0.00041  -0.00041   3.14159
   A23        3.14208  -0.00002   0.00000  -0.00048  -0.00048   3.14159
   A24        3.14171  -0.00002   0.00000  -0.00012  -0.00012   3.14159
   A25        3.14148  -0.00001   0.00000  -0.00002  -0.00002   3.14146
   A26        3.14165   0.00001   0.00000   0.00007   0.00007   3.14171
   A27        3.14146   0.00001   0.00000   0.00020   0.00020   3.14166
   A28        3.14173  -0.00001   0.00000  -0.00021  -0.00021   3.14153
   A29        3.14172   0.00000   0.00000   0.00002   0.00002   3.14174
   A30        3.14183  -0.00002   0.00000  -0.00035  -0.00035   3.14148
    D1       -1.57044  -0.00001   0.00000  -0.00046  -0.00046  -1.57090
    D2        1.57044   0.00001   0.00000   0.00046   0.00046   1.57090
    D3        1.57097  -0.00001   0.00000  -0.00027  -0.00027   1.57070
    D4       -1.57097   0.00001   0.00000   0.00027   0.00027  -1.57070
    D5        1.57108  -0.00001   0.00000  -0.00039  -0.00039   1.57070
    D6       -1.57108   0.00001   0.00000   0.00039   0.00039  -1.57070
    D7       -1.57069  -0.00001   0.00000  -0.00020  -0.00020  -1.57090
    D8        1.57069   0.00001   0.00000   0.00020   0.00020   1.57090
         Item               Value     Threshold  Converged?
 Maximum Force            0.000039     0.000450     YES
 RMS     Force            0.000017     0.000300     YES
 Maximum Displacement     0.002731     0.001800     NO 
 RMS     Displacement     0.000818     0.001200     YES
 Predicted change in Energy=-9.086643D-08
 GradGradGradGradGradGradGradGradGradGradGradGradGradGradGradGradGradGrad

 Leave Link  103 at Fri Dec 10 11:32:12 2021, MaxMem=  2147483648 cpu:         0.1
 (Enter /ddn/data/hamilton6/apps/gaussian/g09D.01/g09/l9999.exe)
 1\1\GINC-CN7G01\Freq\RB3LYP\Gen\C6Cr1O6\DLQG54\10-Dec-2021\0\\#P Geom=
 AllCheck Guess=TCheck SCRF=Check GenChk RB3LYP/ChkBas Freq\\\0,1\Cr,-0
 .9498423444,0.2388406227,-0.0378348112\C,-1.2529493037,2.1065990411,0.
 2420265444\C,-0.6464971226,-1.6287542368,-0.3184359575\O,-0.463834558,
 -2.7534000741,-0.4876932272\O,-1.4353826834,3.2314035564,0.4104684023\
 C,0.9203684855,0.4970122593,0.2693754316\C,-2.8202300467,-0.019145776,
 -0.3440883611\O,-3.9466504793,-0.1747408005,-0.5279666237\O,2.04653348
 01,0.6528898749,0.4545689842\C,-1.2122087737,-0.0837876455,1.829165070
 2\O,-1.3701652897,-0.2779513869,2.953530527\C,-0.6876376428,0.56105278
 28,-1.9049510974\O,-0.5294896213,0.7550108826,-3.0293219816\\Version=E
 S64L-G09RevD.01\State=1-A\HF=-766.496089\RMSD=4.926e-09\RMSF=2.040e-05
 \ZeroPoint=0.050771\Thermal=0.0647813\Dipole=-0.0000881,-0.0000872,-0.
 0001671\DipoleDeriv=-2.566435,-0.0000733,0.0001554,0.0001547,-2.565863
 6,-0.0000658,0.0002427,-0.0000851,-2.5661016,0.4815005,-0.3931163,-0.0
 588416,-0.3936228,2.8421203,0.3632553,-0.0588417,0.3630344,0.4720352,0
 .4816756,-0.3936093,-0.0590934,-0.3939048,2.8415677,0.3643114,-0.05917
 44,0.3647804,0.4724605,-0.2423823,0.2989427,0.0449364,0.2990588,-2.034
 7492,-0.2767459,0.045002,-0.277159,-0.2354849,-0.2422582,0.2985472,0.0
 447193,0.2988187,-2.0352096,-0.2758302,0.0447193,-0.2756979,-0.2351214
 ,2.8484497,0.3355856,0.3993645,0.3361848,0.4639984,0.0551877,0.3996939
 ,0.0551699,0.4832333,2.8492338,0.3353452,0.3980288,0.3356867,0.4638755
 ,0.0548976,0.3970945,0.0547482,0.4825982,-2.0404822,-0.2548101,-0.3021
 765,-0.2551028,-0.2290393,-0.0417589,-0.3012831,-0.0415851,-0.2430984,
 -2.0397902,-0.2550047,-0.3033225,-0.2555522,-0.2291389,-0.0420065,-0.3
 035636,-0.041947,-0.2436775,0.4653929,0.0587823,-0.3405106,0.0587973,0
 .4900018,-0.4185226,-0.3404869,-0.4185277,2.8402031,-0.2301867,-0.0446
 799,0.2585432,-0.0446547,-0.2487446,0.3177893,0.2585572,0.3178898,-2.0
 336446,0.4655072,0.0587543,-0.3405719,0.0587219,0.4897568,-0.4178498,-
 0.3404772,-0.418111,2.8404083,-0.2302251,-0.0446637,0.258769,-0.044585
 5,-0.2485753,0.3173385,0.2585172,0.3174901,-2.0338102\Polar=115.386717
 9,0.0244483,115.3897955,-0.0213386,0.0138737,115.3826116\PG=C01 [X(C6C
 r1O6)]\NImag=0\\0.44990225,-0.00040896,0.45017779,-0.00008893,-0.00000
 505,0.44955720,-0.08260001,-0.00388286,-0.00059985,0.13434479,-0.00396
 912,-0.05852640,0.00371393,-0.16874691,1.14729692,-0.00063646,0.003717
 08,-0.08275836,-0.02535378,0.15578973,0.13025116,-0.08260562,-0.003884
 23,-0.00060314,0.01929040,0.01126177,0.00169579,0.13440145,-0.00397090
 ,-0.05854191,0.00371767,0.01125187,-0.04825539,-0.01038660,-0.16893250
 ,1.14700588,-0.00064035,0.00372413,-0.08274677,0.00169855,-0.01041275,
 0.01958128,-0.02550837,0.15650183,0.13048510,0.02378155,0.01214227,0.0
 0182091,-0.00691246,-0.00410454,-0.00061760,-0.07006769,0.16409785,0.0
 2475144,0.04990324,0.01215310,-0.04893398,-0.01122861,-0.00410126,0.01
 770148,0.00378360,0.16409166,-1.05399109,-0.15209532,-0.17427185,1.094
 76181,0.00182714,-0.01122999,0.02408713,-0.00061897,0.00379554,-0.0070
 1742,0.02475264,-0.15209488,-0.06626301,-0.02628002,0.16150686,0.04585
 473,0.02378182,0.01213199,0.00181327,-0.07000138,0.16391672,0.02460055
 ,-0.00691230,-0.00410144,-0.00061893,0.00212225,0.00202075,0.00030477,
 0.04983315,0.01214276,-0.04894950,-0.01120044,0.16390877,-1.05429109,-
 0.15137920,-0.00410498,0.01770087,0.00379453,0.00202277,-0.01000473,-0
 .00187124,-0.17408113,1.09507328,0.00181866,-0.01119654,0.02410057,0.0
 2460209,-0.15138241,-0.06603993,-0.00061804,0.00378622,-0.00701703,0.0
 0030400,-0.00186467,0.00217240,-0.02612313,0.16076211,0.04562368,-0.05
 841835,0.00349940,0.00405203,-0.00915431,0.01928157,0.00111297,0.00334
 315,-0.01881082,-0.00372724,-0.00122190,0.01580007,0.00272575,0.005016
 47,-0.01552179,-0.00181527,1.14982292,0.00358547,-0.08296118,0.0005668
 7,0.01893176,0.00255109,0.00193420,-0.01856340,-0.00814314,-0.00519001
 ,0.00328334,0.00318959,0.00121190,-0.00298743,-0.00212153,-0.00059911,
 0.14430213,0.12710618,0.00410361,0.00054303,-0.08251277,0.00105638,0.0
 0200140,0.00720506,-0.00366883,-0.00522865,0.00533797,0.00055282,0.002
 96725,-0.00053294,0.00034882,-0.00235558,-0.00147183,0.17148570,0.0237
 3819,0.13514733,-0.05842510,0.00349940,0.00404827,0.00333215,-0.018820
 89,-0.00370999,-0.00915238,0.01928586,0.00113699,0.00501895,-0.0155208
 2,-0.00182984,-0.00121697,0.01580785,0.00271323,-0.04848325,-0.0096011
 8,-0.01143836,1.15028355,0.00358412,-0.08296385,0.00056432,-0.01856975
 ,-0.00813989,-0.00518099,0.01892652,0.00255188,0.00193084,-0.00298747,
 -0.00211761,-0.00059950,0.00328482,0.00318635,0.00120845,-0.00959232,0
 .01982757,-0.00158354,0.14407404,0.12703109,0.00410278,0.00054119,-0.0
 8250348,-0.00366906,-0.00520294,0.00534737,0.00106670,0.00197785,0.007
 20261,0.00034523,-0.00234139,-0.00147140,0.00055448,0.00295402,-0.0005
 3810,-0.01140282,-0.00158012,0.01927072,0.17031829,0.02352637,0.134759
 76,-0.04915808,-0.01032206,-0.01225742,-0.00255009,0.01539197,0.002457
 72,0.00367213,-0.01592616,-0.00208682,-0.00235046,0.01118859,0.0015853
 0,0.00147790,-0.01115589,-0.00174116,0.01778650,0.00349772,0.00416717,
 -1.05717948,-0.14008916,-0.16548027,1.09812634,-0.01033773,0.02436222,
 -0.00169042,0.00286668,0.00451843,0.00138009,-0.00338698,-0.00078321,-
 0.00042299,0.00039634,0.00120569,0.00023717,-0.00036831,-0.00206119,-0
 .00043832,0.00349778,-0.00710748,0.00057740,-0.14008259,-0.06278818,-0
 .02284112,0.14874637,0.04215286,-0.01226229,-0.00168579,0.02376062,0.0
 0029387,0.00311836,-0.00054104,0.00008523,-0.00216183,-0.00147351,-0.0
 0028321,0.00173791,0.00042855,0.00011947,-0.00194009,-0.00014724,0.004
 15288,0.00057514,-0.00690673,-0.16547928,-0.02284287,-0.07046747,0.175
 74541,0.02425590,0.05032356,-0.04914406,-0.01033149,-0.01230052,0.0036
 6859,-0.01592478,-0.00207622,-0.00255309,0.01538536,0.00246643,0.00148
 013,-0.01115063,-0.00174891,-0.00234761,0.01118868,0.00157659,-1.05672
 513,-0.14031518,-0.16664012,0.01778617,0.00349463,0.00415248,-0.010042
 84,-0.00172326,-0.00204288,1.09765546,-0.01034639,0.02435791,-0.001698
 88,-0.00338690,-0.00078684,-0.00042346,0.00286483,0.00452250,0.0013833
 9,-0.00036742,-0.00206423,-0.00044029,0.00039595,0.00120941,0.00023680
 ,-0.14030941,-0.06285888,-0.02304918,0.00350144,-0.00710735,0.00057595
 ,-0.00172548,0.00221615,-0.00028312,0.14898012,0.04222573,-0.01230810,
 -0.00169474,0.02374878,0.00008931,-0.00218222,-0.00147560,0.00029111,0
 .00313858,-0.00053615,0.00012156,-0.00195278,-0.00015070,-0.00028545,0
 .00175132,0.00042933,-0.16663982,-0.02305089,-0.07085842,0.00416765,0.
 00057664,-0.00690648,-0.00205296,-0.00028414,0.00211844,0.17694663,0.0
 2447114,0.05072874,-0.08285366,0.00059175,-0.00344393,0.00718909,-0.00
 089780,-0.00198349,0.00540832,0.00349623,0.00510322,-0.00058126,-0.002
 29512,-0.00135196,-0.00145555,0.00192599,0.00044003,-0.00829440,-0.005
 22441,0.01851247,0.00255266,0.00219498,-0.01902290,-0.00216547,-0.0006
 2179,0.00297542,0.00324608,0.00120552,-0.00327444,0.12754862,0.0006040
 6,-0.08256635,-0.00426600,-0.00083632,-0.00957703,0.01888134,0.0034410
 2,0.00374732,-0.01844159,-0.00023092,-0.00274491,0.00280163,-0.0001423
 7,0.00387127,-0.00334486,-0.00525652,0.00534018,0.00347748,0.00221265,
 0.00721007,-0.00067326,-0.00249223,-0.00145895,-0.00043874,0.00307654,
 -0.00053648,-0.00050789,0.02521511,0.13796602,-0.00345772,-0.00425251,
 -0.05848090,-0.00202896,0.01917346,0.00296597,0.00512388,-0.01874126,-
 0.00862424,-0.00308178,0.01534115,0.00476358,0.00217109,-0.01588875,-0
 .00100109,0.01880927,0.00356597,0.00348998,-0.01928135,-0.00074194,-0.
 00926607,0.01550041,0.00160091,0.00502986,-0.01579612,-0.00255379,-0.0
 0128028,-0.14599259,-0.17950894,1.14618176,0.02430118,-0.00181142,0.01
 049910,-0.00144694,0.00166688,0.00060208,-0.00057011,-0.00255089,-0.00
 119290,-0.00012768,0.00163162,0.00043529,0.00041146,-0.00147071,-0.000
 24145,0.00458383,0.00136215,-0.00285628,-0.00082110,-0.00046461,0.0033
 8320,0.00123108,0.00023288,-0.00039035,-0.00209140,-0.00042368,0.00036
 028,-0.06329497,-0.02451735,0.14183660,0.04270998,-0.00181820,0.023549
 63,0.01289947,-0.00039597,0.00520166,-0.00290977,-0.00048291,-0.001426
 22,0.00324355,-0.00014400,0.00160125,-0.00032985,0.00030605,-0.0024721
 6,0.00035831,0.00323138,-0.00055640,-0.00023937,-0.00233511,-0.0014737
 9,-0.00017331,0.00184791,0.00042353,0.00031610,-0.00203690,-0.00014274
 ,-0.00014245,-0.02451690,-0.07350276,0.17438780,0.02603254,0.05355269,
 0.01049345,0.01289521,-0.04889379,0.00233151,-0.01545163,-0.00233470,-
 0.00291987,0.01577945,0.00343174,0.00192435,-0.01113183,-0.00220660,-0
 .00172972,0.01116514,0.00133743,-0.01538224,-0.00228901,-0.00260218,0.
 01591667,0.00186800,0.00369470,-0.01118426,-0.00144069,-0.00236159,0.0
 1114585,0.00161834,0.00151003,0.14183703,0.17439608,-1.05323762,-0.150
 63107,-0.18519193,1.09396711,-0.08287025,0.00058295,-0.00343565,0.0054
 1132,0.00349938,0.00510017,0.00719458,-0.00089213,-0.00198581,-0.00145
 706,0.00192573,0.00044169,-0.00058185,-0.00229563,-0.00134973,0.002571
 12,0.00219445,-0.01900293,-0.00827600,-0.00521647,0.01851167,0.0032446
 7,0.00120386,-0.00327700,-0.00216383,-0.00062185,0.00297289,0.01979508
 ,-0.00169036,0.00975471,-0.00709518,0.00061532,-0.00355266,0.12756567,
 0.00059544,-0.08255095,-0.00425390,0.00344551,0.00372617,-0.01845189,-
 0.00083399,-0.00958880,0.01889198,-0.00014257,0.00386551,-0.00334386,-
 0.00023252,-0.00273928,0.00280580,0.00220910,0.00720639,-0.00067326,-0
 .00524607,0.00534022,0.00347955,0.00307235,-0.00053788,-0.00051154,-0.
 00248754,-0.00145841,-0.00044055,-0.00168904,0.01908946,0.01198778,0.0
 0061539,-0.00683847,-0.00436805,0.02521580,0.13792610,-0.00344757,-0.0
 0423902,-0.05846244,0.00511637,-0.01874698,-0.00860407,-0.00203199,0.0
 1916212,0.00296944,0.00217493,-0.01588726,-0.00101192,-0.00307719,0.01
 534342,0.00474893,-0.01928142,-0.00075316,-0.00927773,0.01881664,0.003
 55980,0.00346258,-0.01579811,-0.00254916,-0.00125835,0.01549650,0.0016
 0597,0.00504879,0.00975614,0.01199897,-0.04823351,-0.00355503,-0.00437
 189,0.01769372,-0.14619282,-0.17933665,1.14620151,0.02430833,-0.001806
 73,0.01049584,-0.00057115,-0.00255425,-0.00119175,-0.00144884,0.001667
 66,0.00060378,0.00041237,-0.00147184,-0.00024288,-0.00012740,0.0016333
 1,0.00043417,-0.00082665,-0.00046541,0.00337954,0.00458080,0.00136066,
 -0.00285978,-0.00209219,-0.00042324,0.00036272,0.00123151,0.00023327,-
 0.00038866,-0.00709453,0.00061670,-0.00355744,0.00220984,-0.00030321,0
 .00175095,-0.06333828,-0.02452186,0.14202353,0.04275620,-0.00181364,0.
 02354657,0.01288104,-0.00048463,-0.00141912,0.00324587,-0.00039680,0.0
 0520133,-0.00290760,0.00030620,-0.00246877,0.00035651,-0.00014308,0.00
 159829,-0.00033179,-0.00233057,-0.00147239,-0.00017515,0.00322544,-0.0
 0055650,-0.00024280,-0.00203393,-0.00014200,-0.00013942,0.00184443,0.0
 0042323,0.00031798,0.00061548,-0.00683782,-0.00436987,-0.00030279,0.00
 208378,0.00215090,-0.02452104,-0.07344005,0.17421384,0.02603493,0.0534
 8345,0.01049577,0.01288300,-0.04889579,-0.00291746,0.01578650,0.003420
 27,0.00233487,-0.01545052,-0.00234742,-0.00173263,0.01116510,0.0013475
 9,0.00192197,-0.01113526,-0.00219712,0.01591021,0.00187004,0.00371154,
 -0.01537893,-0.00228557,-0.00258473,0.01114498,0.00161538,0.00149489,-
 0.01117973,-0.00144288,-0.00237648,-0.00355501,-0.00437421,0.01769256,
 0.00175052,0.00215332,-0.00999825,0.14201546,0.17421458,-1.05327695,-0
 .15081004,-0.18499950,1.09400989\\0.00001872,0.00001727,0.00001472,0.0
 0003082,0.00003211,0.00000761,-0.00002635,-0.00002338,-0.00002314,0.00
 000213,0.00001685,-0.00000268,-0.00000242,-0.00001758,0.00000090,0.000
 05226,0.00001477,-0.00000034,-0.00004720,-0.00001966,-0.00000020,0.000
 01524,0.00000020,0.00001281,-0.00001929,0.00000397,0.00000041,-0.00003
 244,-0.00000587,0.00001991,0.00000955,0.00000289,-0.00001170,-0.000007
 76,-0.00002919,-0.00003821,0.00000675,0.00000763,0.00001991\\\@


 When I told the people of Northern Ireland that I was
 an atheist, a woman in the audience stood up and said,
 "Yes, but is it the God of the Catholics or the God
 of the Protestants in whom you don't believe?"
                               -- Quentin Crisp
 Job cpu time:       0 days  0 hours  8 minutes 58.6 seconds.
 File lengths (MBytes):  RWF=     76 Int=      0 D2E=      0 Chk=      4 Scr=      1
 Normal termination of Gaussian 09 at Fri Dec 10 11:32:12 2021.
